# Generated from the PW2PY python module
DIM-GROUP
        3      1
PRIMVEC
        30.795575046       0.000000000       0.000000000
       -15.397787520      26.669752614       0.000000000
         0.000000000       0.000000000      13.991233495
CONVVEC
        30.795575046       0.000000000       0.000000000
       -15.397787520      26.669752614       0.000000000
         0.000000000       0.000000000      13.991233495
PRIMCOORD
     1080      1
    O           1.562721210       2.959843282      12.834075601
    O          -0.799381158       4.313982440      12.842505851
    O           3.347823164       2.835615797       1.157132080
    O           3.346728381       0.124005255       1.162832445
    O           1.001407009       1.479174106       1.165625417
    O          -0.785779010       1.598652393      12.830826305
    O           1.590720700       0.010812842       3.498116713
    O           9.460933058       1.329073733       3.490593109
    O           0.732874024       4.318949780       5.832576435
    O           0.772428153       1.602691118       5.817637701
    O          -1.565388599       2.986165457       5.818125576
    O           1.743692690       3.066966149       3.495663028
    O           4.127314626       1.484363062       8.178030665
    O           1.767653705       2.777200255       8.149985713
    O           0.783054326       1.354574631      10.508489203
    O           8.478261795       3.090713136      10.510180211
    O           3.561968284       0.001255372      10.505215786
    O           1.778710050       0.118852597       8.173354473
    Fe1        -0.004950881       2.949421863       0.288585099
    Fe2        -5.122763444       8.876905126       2.025643076
    Fe1         2.566457955       1.480461881      13.687260712
    Fe2         5.133743875       8.884828834      11.966943231
    Fe1         5.136717286       8.858634896       4.946330585
    Fe2         2.535241143       1.452067476       6.723993151
    Fe1        -0.062767900       2.914348738       4.357459659
    Fe2         2.571238819       1.468404815       2.613309749
    Fe1         2.571101101       1.510830098       9.648223800
    Fe2        -0.003902908       2.964099935      11.381348436
    Fe1         0.020910955       0.023571599       9.070569660
    Fe2         0.007984112       2.938169379       7.318865659
    O           6.700762104       2.965058384      12.830426044
    O           4.349351246       4.319473351      12.830570727
    O           8.480670569       2.833374391       1.156926213
    O           8.479745156       0.118686862       1.168997836
    O           6.129269165       1.485938097       1.147318937
    O           4.358349245       1.594622389      12.845838087
    O           6.622978958       0.081531416       3.470885407
    O           4.328442487       1.366387366       3.497949727
    O           5.939804014       4.295363771       5.807134538
    O           5.913645282       1.610307439       5.830174644
    O           3.580046205       2.935718464       5.837150589
    O           6.930026173       3.093546060       3.475026112
    O           9.259528391       1.487891959       8.189486757
    O           6.927937191       2.853618769       8.170682147
    O           5.919120900       1.351807057      10.509075505
    O           3.366185857       3.042631164      10.554631367
    O           8.696385195       0.000348574      10.499278746
    O           6.879462307       0.188085594       8.171883924
    Fe1         5.132341429       2.966267243       0.289064746
    Fe2         5.133004657       0.003690818       2.022855099
    Fe1         7.694272526       1.480344197      13.686944216
    Fe2         0.002251106       8.887459565      11.970196683
    Fe1         5.123370760       0.002187222       4.949301218
    Fe2         7.690924734       1.570851567       6.708407994
    Fe1         5.191165099       2.919884570       4.359083090
    Fe2         7.690132498       1.481137346       2.596886545
    Fe1         7.702472233       1.493971951       9.656216152
    Fe2         5.135857596       2.956483783      11.377073694
    Fe1        -0.046552289       8.886899562       9.069346210
    Fe2         5.132443029       2.962983424       7.328410646
    O          -0.999106301       7.404309568      12.825195379
    O          -3.346193994       8.763478081      12.823090888
    O           0.783065572       7.276488840       1.168054770
    O           0.770115770       4.564497801       1.136976603
    O          -1.565050873       5.927026739       1.161182528
    O          -3.348237866       6.054736778      12.823198956
    O          -1.001461845       4.432596574       3.481718273
    O          -3.332382749       5.800729209       3.484303196
    O          -1.784428736       8.766169424       5.830926141
    O          -1.806274091       6.054313360       5.823654407
    O          -4.120373199       7.406580017       5.835216035
    O          -0.782551772       7.525511619       3.497160957
    O           1.496766861       5.962536767       8.132443854
    O          -0.813735355       7.296134829       8.181861185
    O          -1.781250792       5.801630211      10.501894910
    O           5.910411537       7.526226075      10.497781684
    O           0.954417674       4.455718165      10.561913245
    O          -0.780096287       4.560478634       8.175800588
    Fe1        -2.559109468       7.407805003       0.286213935
    Fe2         7.700043120       4.441416430       2.011551903
    Fe1         0.003570337       5.920789146      13.680430401
    Fe2         7.697367061       4.446494484      11.964729426
    Fe1        -2.559183603       4.464872620       4.926964717
    Fe2        -0.076051201       5.933278893       6.737203352
    Fe1        -2.564364830       7.416587237       4.361364976
    Fe2        -0.019129631       5.922126945       2.612799629
    Fe1         0.019546814       5.906963653       9.657751312
    Fe2        -2.572511548       7.405211761      11.358143486
    Fe1        -2.555394552       4.457087106       9.051264975
    Fe2        -2.568423466       7.430388007       7.297602216
    O           4.134316478       7.414513051      12.834261628
    O           1.783285360       8.761765287      12.831207244
    O           5.928054527       7.277589092       1.146708653
    O           5.915613038       4.569477133       1.161764144
    O           3.576620962       5.930421700       1.154771423
    O           1.789963709       6.052043142      12.831057986
    O           4.149827295       4.411908856       3.496607240
    O           1.791150816       5.740300279       3.431499357
    O           3.367355833       8.843155158       5.877091335
    O           3.416294128       6.075095987       5.839610234
    O           0.949122087       7.391810610       5.838434061
    O           4.462523773       7.534531765       3.475602761
    O           6.736750131       5.936875283       8.172646754
    O           4.388096817       7.289484575       8.169695178
    O           3.352496701       5.812386905      10.512521182
    O           0.784864080       7.535571787      10.499107003
    O           6.139945596       4.441913848      10.508390662
    O           4.447752793       4.591469953       8.147557912
    Fe1         2.563366285       7.410344417       0.296139092
    Fe2         2.553579200       4.451426904       1.942403702
    Fe1         5.133704416       5.927689420      13.682959177
    Fe2         2.565857118       4.436029905      11.930417913
    Zr          2.554890681       4.454364133       4.920547484
    Fe2         5.243850046       5.877556934       6.732348254
    Fe1         2.583442126       7.506802263       4.235291902
    Fe2         5.156701853       5.933776826       2.611645912
    Fe1         5.114108781       5.890729445       9.646820829
    Fe2         2.568319384       7.402423892      11.373864875
    Fe1         2.542605243       4.419849215       9.032483563
    Zr          2.560939928       7.440454559       7.245435608
    O          -3.569874630      11.849760820      12.834075601
    O          -5.931976998      13.203899978      12.842505851
    O          -1.784772676      11.725533335       1.157132080
    O          -1.785867459       9.013922793       1.162832445
    O          -4.131188831      10.369091644       1.165625417
    O          -5.918374850      10.488569931      12.830826305
    O          -3.541875140       8.900730380       3.498116713
    O           4.328337218      10.218991271       3.490593109
    O          -4.399721816      13.208867318       5.832576435
    O          -4.360167687      10.492608656       5.817637701
    O          -6.697984439      11.876082995       5.818125576
    O          -3.388903150      11.956883687       3.495663028
    O          -1.005281214      10.374280600       8.178030665
    O          -3.364942135      11.667117793       8.149985713
    O          -4.349541514      10.244492169      10.508489203
    O           3.345665955      11.980630674      10.510180211
    O          -1.570627556       8.891172910      10.505215786
    O          -3.353885790       9.008770135       8.173354473
    Fe1        -5.137546721      11.839339401       0.288585099
    Fe2       -10.255359284      17.766822664       2.025643076
    Fe1        -2.566137885      10.370379419      13.687260712
    Fe2         0.001148035      17.774746372      11.966943231
    Fe1         0.004121446      17.748552434       4.946330585
    Fe2        -2.597354697      10.341985014       6.723993151
    Fe1        -5.195363740      11.804266276       4.357459659
    Fe2        -2.561357021      10.358322353       2.613309749
    Fe1        -2.561494739      10.400747636       9.648223800
    Fe2        -5.136498748      11.854017473      11.381348436
    Fe1        -5.111684885       8.913489137       9.070569660
    Fe2        -5.124611728      11.828086917       7.318865659
    O           1.568166264      11.854975922      12.830426044
    O          -0.783244594      13.209390889      12.830570727
    O           3.348074729      11.723291929       1.156926213
    O           3.347149316       9.008604400       1.168997836
    O           0.996673325      10.375855635       1.147318937
    O          -0.774246595      10.484539927      12.845838087
    O           1.490383118       8.971448954       3.470885407
    O          -0.804153353      10.256304904       3.497949727
    O           0.807208174      13.185281309       5.807134538
    O           0.781049442      10.500224977       5.830174644
    O          -1.552549635      11.825636002       5.837150589
    O           1.797430333      11.983463598       3.475026112
    O           4.126932551      10.377809497       8.189486757
    O           1.795341351      11.743536307       8.170682147
    O           0.786525060      10.241724595      10.509075505
    O          -1.766409983      11.932548702      10.554631367
    O           3.563789355       8.890266112      10.499278746
    O           1.746866467       9.078003132       8.171883924
    Fe1        -0.000254411      11.856184781       0.289064746
    Fe2         0.000408817       8.893608356       2.022855099
    Fe1         2.561676686      10.370261735      13.686944216
    Fe2        -5.130344734      17.777377103      11.970196683
    Fe1        -0.009225080       8.892104760       4.949301218
    Fe2         2.558328894      10.460769105       6.708407994
    Fe1         0.058569259      11.809802108       4.359083090
    Fe2         2.557536658      10.371054884       2.596886545
    Fe1         2.569876393      10.383889489       9.656216152
    Fe2         0.003261756      11.846401321      11.377073694
    Fe1        -5.179148129      17.776817100       9.069346210
    Fe2        -0.000152811      11.852900962       7.328410646
    O          -6.131702141      16.294227106      12.825195379
    O          -8.478789834      17.653395619      12.823090888
    O          -4.349530268      16.166406378       1.168054770
    O          -4.362480070      13.454415339       1.136976603
    O          -6.697646713      14.816944277       1.161182528
    O          -8.480833706      14.944654316      12.823198956
    O          -6.134057685      13.322514112       3.481718273
    O          -8.464978589      14.690646747       3.484303196
    O          -6.917024576      17.656086962       5.830926141
    O          -6.938869931      14.944230898       5.823654407
    O          -9.252969039      16.296497555       5.835216035
    O          -5.915147612      16.415429157       3.497160957
    O          -3.635828979      14.852454305       8.132443854
    O          -5.946331195      16.186052367       8.181861185
    O          -6.913846632      14.691547749      10.501894910
    O           0.777815697      16.416143613      10.497781684
    O          -4.178178166      13.345635703      10.561913245
    O          -5.912692127      13.450396172       8.175800588
    Fe1        -7.691705308      16.297722541       0.286213935
    Fe2         2.567447280      13.331333968       2.011551903
    Fe1        -5.129025503      14.810706684      13.680430401
    Fe2         2.564771221      13.336412022      11.964729426
    Fe1        -7.691779443      13.354790158       4.926964717
    Fe2        -5.208647041      14.823196431       6.737203352
    Fe1        -7.696960670      16.306504775       4.361364976
    Fe2        -5.151725471      14.812044483       2.612799629
    Fe1        -5.113049026      14.796881191       9.657751312
    Fe2        -7.705107388      16.295129299      11.358143486
    Fe1        -7.687990392      13.347004644       9.051264975
    Fe2        -7.701019306      16.320305545       7.297602216
    O          -0.998279362      16.304430589      12.834261628
    O          -3.349310480      17.651682825      12.831207244
    O           0.795458687      16.167506630       1.146708653
    O           0.783017198      13.459394671       1.161764144
    O          -1.555974878      14.820339238       1.154771423
    O          -3.342632131      14.941960680      12.831057986
    O          -0.982768545      13.301826394       3.496607240
    O          -3.341445024      14.630217817       3.431499357
    O          -1.765240007      17.733072696       5.877091335
    O          -1.716301712      14.965013525       5.839610234
    O          -4.183473753      16.281728148       5.838434061
    O          -0.670072067      16.424449303       3.475602761
    O           1.604154291      14.826792821       8.172646754
    O          -0.744499023      16.179402113       8.169695178
    O          -1.780099139      14.702304443      10.512521182
    O          -4.347731760      16.425489325      10.499107003
    O           1.007349756      13.331831386      10.508390662
    O          -0.684843047      13.481387491       8.147557912
    Fe1        -2.569229555      16.300261955       0.296139092
    Fe2        -2.579016640      13.341344442       1.942403702
    Fe1         0.001108576      14.817606958      13.682959177
    Fe2        -2.566738722      13.325947443      11.930417913
    Zr         -2.577705159      13.344281671       4.920547484
    Fe2         0.111254206      14.767474472       6.732348254
    Fe1        -2.549153714      16.396719801       4.235291902
    Fe2         0.024106013      14.823694364       2.611645912
    Fe1        -0.018487059      14.780646983       9.646820829
    Fe2        -2.564276456      16.292341430      11.373864875
    Fe1        -2.589990597      13.309766753       9.032483563
    Zr         -2.571655912      16.330372097       7.245435608
    O          -8.702470470      20.739678358      12.834075601
    O         -11.064572838      22.093817516      12.842505851
    O          -6.917368516      20.615450873       1.157132080
    O          -6.918463299      17.903840331       1.162832445
    O          -9.263784671      19.259009182       1.165625417
    O         -11.050970690      19.378487469      12.830826305
    O          -8.674470980      17.790647918       3.498116713
    O          -0.804258622      19.108908809       3.490593109
    O          -9.532317656      22.098784856       5.832576435
    O          -9.492763527      19.382526194       5.817637701
    O         -11.830580279      20.766000533       5.818125576
    O          -8.521498990      20.846801225       3.495663028
    O          -6.137877054      19.264198138       8.178030665
    O          -8.497537975      20.557035331       8.149985713
    O          -9.482137354      19.134409707      10.508489203
    O          -1.786929885      20.870548212      10.510180211
    O          -6.703223396      17.781090448      10.505215786
    O          -8.486481630      17.898687673       8.173354473
    Fe1       -10.270142561      20.729256939       0.288585099
    Fe2       -15.387955124      26.656740202       2.025643076
    Fe1        -7.698733725      19.260296957      13.687260712
    Fe2        -5.131447805      26.664663910      11.966943231
    Fe1        -5.128474394      26.638469972       4.946330585
    Fe2        -7.729950537      19.231902552       6.723993151
    Fe1       -10.327959580      20.694183814       4.357459659
    Fe2        -7.693952861      19.248239891       2.613309749
    Fe1        -7.694090579      19.290665174       9.648223800
    Fe2       -10.269094588      20.743935011      11.381348436
    Fe1       -10.244280725      17.803406675       9.070569660
    Fe2       -10.257207568      20.718004455       7.318865659
    O          -3.564429576      20.744893460      12.830426044
    O          -5.915840434      22.099308427      12.830570727
    O          -1.784521111      20.613209467       1.156926213
    O          -1.785446524      17.898521938       1.168997836
    O          -4.135922515      19.265773173       1.147318937
    O          -5.906842435      19.374457465      12.845838087
    O          -3.642212722      17.861366492       3.470885407
    O          -5.936749193      19.146222442       3.497949727
    O          -4.325387666      22.075198847       5.807134538
    O          -4.351546398      19.390142515       5.830174644
    O          -6.685145475      20.715553540       5.837150589
    O          -3.335165507      20.873381136       3.475026112
    O          -1.005663289      19.267727035       8.189486757
    O          -3.337254489      20.633453845       8.170682147
    O          -4.346070780      19.131642133      10.509075505
    O          -6.899005823      20.822466240      10.554631367
    O          -1.568806485      17.780183650      10.499278746
    O          -3.385729373      17.967920670       8.171883924
    Fe1        -5.132850251      20.746102319       0.289064746
    Fe2        -5.132187023      17.783525894       2.022855099
    Fe1        -2.570919154      19.260179273      13.686944216
    Fe2       -10.262940574      26.667294641      11.970196683
    Fe1        -5.141820920      17.782022298       4.949301218
    Fe2        -2.574266946      19.350686643       6.708407994
    Fe1        -5.074026581      20.699719646       4.359083090
    Fe2        -2.575059182      19.260972422       2.596886545
    Fe1        -2.562719447      19.273807027       9.656216152
    Fe2        -5.129334084      20.736318859      11.377073694
    Fe1       -10.311743969      26.666734638       9.069346210
    Fe2        -5.132748651      20.742818500       7.328410646
    O         -11.264297981      25.184144644      12.825195379
    O         -13.611385674      26.543313157      12.823090888
    O          -9.482126108      25.056323916       1.168054770
    O          -9.495075910      22.344332877       1.136976603
    O         -11.830242553      23.706861815       1.161182528
    O         -13.613429546      23.834571854      12.823198956
    O         -11.266653525      22.212431650       3.481718273
    O         -13.597574429      23.580564285       3.484303196
    O         -12.049620416      26.546004500       5.830926141
    O         -12.071465771      23.834148436       5.823654407
    O         -14.385564879      25.186415093       5.835216035
    O         -11.047743452      25.305346695       3.497160957
    O          -8.768424819      23.742371843       8.132443854
    O         -11.078927035      25.075969905       8.181861185
    O         -12.046442472      23.581465287      10.501894910
    O          -4.354780143      25.306061151      10.497781684
    O          -9.310774006      22.235553241      10.561913245
    O         -11.045287967      22.340313710       8.175800588
    Fe1       -12.824301148      25.187640079       0.286213935
    Fe2        -2.565148560      22.221251506       2.011551903
    Fe1       -10.261621343      23.700624222      13.680430401
    Fe2        -2.567824619      22.226329560      11.964729426
    Fe1       -12.824375283      22.244707696       4.926964717
    Fe2       -10.341242881      23.713113969       6.737203352
    Fe1       -12.829556510      25.196422313       4.361364976
    Fe2       -10.284321311      23.701962021       2.612799629
    Fe1       -10.245644866      23.686798729       9.657751312
    Fe2       -12.837703228      25.185046837      11.358143486
    Fe1       -12.820586232      22.236922182       9.051264975
    Fe2       -12.833615146      25.210223083       7.297602216
    O          -6.130875202      25.194348127      12.834261628
    O          -8.481906320      26.541600363      12.831207244
    O          -4.337137153      25.057424168       1.146708653
    O          -4.349578642      22.349312209       1.161764144
    O          -6.688570718      23.710256776       1.154771423
    O          -8.475227971      23.831878218      12.831057986
    O          -6.115364385      22.191743932       3.496607240
    O          -8.474040864      23.520135355       3.431499357
    O          -6.897835847      26.622990234       5.877091335
    O          -6.848897552      23.854931063       5.839610234
    O          -9.316069593      25.171645686       5.838434061
    O          -5.802667907      25.314366841       3.475602761
    O          -3.528441549      23.716710359       8.172646754
    O          -5.877094863      25.069319651       8.169695178
    O          -6.912694979      23.592221981      10.512521182
    O          -9.480327600      25.315406863      10.499107003
    O          -4.125246084      22.221748924      10.508390662
    O          -5.817438887      22.371305029       8.147557912
    Fe1        -7.701825395      25.190179493       0.296139092
    Fe2        -7.711612480      22.231261980       1.942403702
    Fe1        -5.131487264      23.707524496      13.682959177
    Fe2        -7.699334562      22.215864981      11.930417913
    Zr         -7.710300999      22.234199209       4.920547484
    Fe2        -5.021341634      23.657392010       6.732348254
    Fe1        -7.681749554      25.286637339       4.235291902
    Fe2        -5.108489827      23.713611902       2.611645912
    Fe1        -5.151082899      23.670564521       9.646820829
    Fe2        -7.696872296      25.182258968      11.373864875
    Fe1        -7.722586437      22.199684291       9.032483563
    Zr         -7.704251752      25.220289635       7.245435608
    O          11.827912892       2.959843282      12.834075601
    O           9.465810524       4.313982440      12.842505851
    O          13.613014846       2.835615797       1.157132080
    O          13.611920063       0.124005255       1.162832445
    O          11.266598691       1.479174106       1.165625417
    O           9.479412672       1.598652393      12.830826305
    O          11.855912382       0.010812842       3.498116713
    O          19.726124740       1.329073733       3.490593109
    O          10.998065706       4.318949780       5.832576435
    O          11.037619835       1.602691118       5.817637701
    O           8.699803083       2.986165457       5.818125576
    O          12.008884372       3.066966149       3.495663028
    O          14.392506308       1.484363062       8.178030665
    O          12.032845387       2.777200255       8.149985713
    O          11.048246008       1.354574631      10.508489203
    O          18.743453477       3.090713136      10.510180211
    O          13.827159966       0.001255372      10.505215786
    O          12.043901732       0.118852597       8.173354473
    Fe1        10.260240801       2.949421863       0.288585099
    Fe2         5.142428238       8.876905126       2.025643076
    Fe1        12.831649637       1.480461881      13.687260712
    Fe2        15.398935557       8.884828834      11.966943231
    Fe1        15.401908968       8.858634896       4.946330585
    Fe2        12.800432825       1.452067476       6.723993151
    Fe1        10.202423782       2.914348738       4.357459659
    Fe2        12.836430501       1.468404815       2.613309749
    Fe1        12.836292783       1.510830098       9.648223800
    Fe2        10.261288774       2.964099935      11.381348436
    Fe1        10.286102637       0.023571599       9.070569660
    Fe2        10.273175794       2.938169379       7.318865659
    O          16.965953786       2.965058384      12.830426044
    O          14.614542928       4.319473351      12.830570727
    O          18.745862251       2.833374391       1.156926213
    O          18.744936838       0.118686862       1.168997836
    O          16.394460847       1.485938097       1.147318937
    O          14.623540927       1.594622389      12.845838087
    O          16.888170640       0.081531416       3.470885407
    O          14.593634169       1.366387366       3.497949727
    O          16.204995696       4.295363771       5.807134538
    O          16.178836964       1.610307439       5.830174644
    O          13.845237887       2.935718464       5.837150589
    O          17.195217855       3.093546060       3.475026112
    O          19.524720073       1.487891959       8.189486757
    O          17.193128873       2.853618769       8.170682147
    O          16.184312582       1.351807057      10.509075505
    O          13.631377539       3.042631164      10.554631367
    O          18.961576877       0.000348574      10.499278746
    O          17.144653989       0.188085594       8.171883924
    Fe1        15.397533111       2.966267243       0.289064746
    Fe2        15.398196339       0.003690818       2.022855099
    Fe1        17.959464208       1.480344197      13.686944216
    Fe2        10.267442788       8.887459565      11.970196683
    Fe1        15.388562442       0.002187222       4.949301218
    Fe2        17.956116416       1.570851567       6.708407994
    Fe1        15.456356781       2.919884570       4.359083090
    Fe2        17.955324180       1.481137346       2.596886545
    Fe1        17.967663915       1.493971951       9.656216152
    Fe2        15.401049278       2.956483783      11.377073694
    Fe1        10.218639393       8.886899562       9.069346210
    Fe2        15.397634711       2.962983424       7.328410646
    O           9.266085381       7.404309568      12.825195379
    O           6.918997688       8.763478081      12.823090888
    O          11.048257254       7.276488840       1.168054770
    O          11.035307452       4.564497801       1.136976603
    O           8.700140809       5.927026739       1.161182528
    O           6.916953816       6.054736778      12.823198956
    O           9.263729837       4.432596574       3.481718273
    O           6.932808933       5.800729209       3.484303196
    O           8.480762946       8.766169424       5.830926141
    O           8.458917591       6.054313360       5.823654407
    O           6.144818483       7.406580017       5.835216035
    O           9.482639910       7.525511619       3.497160957
    O          11.761958543       5.962536767       8.132443854
    O           9.451456327       7.296134829       8.181861185
    O           8.483940890       5.801630211      10.501894910
    O          16.175603219       7.526226075      10.497781684
    O          11.219609356       4.455718165      10.561913245
    O           9.485095395       4.560478634       8.175800588
    Fe1         7.706082214       7.407805003       0.286213935
    Fe2        17.965234802       4.441416430       2.011551903
    Fe1        10.268762019       5.920789146      13.680430401
    Fe2        17.962558743       4.446494484      11.964729426
    Fe1         7.706008079       4.464872620       4.926964717
    Fe2        10.189140481       5.933278893       6.737203352
    Fe1         7.700826852       7.416587237       4.361364976
    Fe2        10.246062051       5.922126945       2.612799629
    Fe1        10.284738496       5.906963653       9.657751312
    Fe2         7.692680134       7.405211761      11.358143486
    Fe1         7.709797130       4.457087106       9.051264975
    Fe2         7.696768216       7.430388007       7.297602216
    O          14.399508160       7.414513051      12.834261628
    O          12.048477042       8.761765287      12.831207244
    O          16.193246209       7.277589092       1.146708653
    O          16.180804720       4.569477133       1.161764144
    O          13.841812644       5.930421700       1.154771423
    O          12.055155391       6.052043142      12.831057986
    O          14.415018977       4.411908856       3.496607240
    O          12.056342498       5.740300279       3.431499357
    O          13.632547515       8.843155158       5.877091335
    O          13.681485810       6.075095987       5.839610234
    O          11.214313769       7.391810610       5.838434061