
     Program PWSCF v.6.4.1 starts on 26Jan2023 at  5:35: 5 

     This program is part of the open-source Quantum ESPRESSO suite
     for quantum simulation of materials; please cite
         "P. Giannozzi et al., J. Phys.:Condens. Matter 21 395502 (2009);
         "P. Giannozzi et al., J. Phys.:Condens. Matter 29 465901 (2017);
          URL http://www.quantum-espresso.org", 
     in publications or presentations arising from this work. More details at
     http://www.quantum-espresso.org/quote

     Parallel version (MPI), running on    32 processors

     MPI processes distributed on     8 nodes
     K-points division:     npool     =       2
     band groups division:  nbgrp     =       2
     R & G space division:  proc/nbgrp/npool/nimage =       8
     Reading input from relax.in

     Current dimensions of program PWSCF are:
     Max number of different atomic species (ntypx) = 10
     Max number of k-points (npk) =  40000
     Max angular momentum in pseudopotentials (lmaxx) =  3

     gamma-point specific algorithms are used

     Subspace diagonalization in iterative solution of the eigenvalue problem:
     a serial algorithm will be used

     Message from routine setup:
     DEPRECATED: symmetry with ibrav=0, use correct ibrav instead
 
     Parallelization info
     --------------------
     sticks:   dense  smooth     PW     G-vecs:    dense   smooth      PW
     Min        2972    2972    741               390903   390903   48854
     Max        2976    2976    742               390910   390910   48862
     Sum       23785   23785   5935              3127241  3127241  390861
 


     bravais-lattice index     =            0
     lattice parameter (alat)  =      37.9150  a.u.
     unit-cell volume          =   49798.2142 (a.u.)^3
     number of atoms/cell      =          127
     number of atomic types    =            2
     number of electrons       =       508.00 (up: 255.00, down: 253.00)
     number of Kohn-Sham states=          270
     kinetic-energy cutoff     =      60.0000  Ry
     charge density cutoff     =     240.0000  Ry
     convergence threshold     =      1.0E-08
     mixing beta               =       0.7000
     number of iterations used =            8  plain     mixing
     Exchange-correlation      = PBE ( 1  4  3  4 0 0)
     nstep                     =           50


     celldm(1)=  37.915045  celldm(2)=   0.000000  celldm(3)=   0.000000
     celldm(4)=   0.000000  celldm(5)=   0.000000  celldm(6)=   0.000000

     crystal axes: (cart. coord. in units of alat)
               a(1) = (   1.000000   0.000000   0.000000 )  
               a(2) = (  -0.500000   0.866025   0.000000 )  
               a(3) = (   0.000000   0.000000   1.054990 )  

     reciprocal axes: (cart. coord. in units 2 pi/alat)
               b(1) = (  1.000000  0.577350  0.000000 )  
               b(2) = (  0.000000  1.154701  0.000000 )  
               b(3) = (  0.000000  0.000000  0.947876 )  


     PseudoPot. # 1 for B  read from file:
     /home/szhan213/Pseudopotential/pseudo-ONCV-proj/B_ONCV_PBE-1.0.upf
     MD5 check sum: a9fd2462c33df863cd3ce8a66ea40380
     Pseudo is Norm-conserving, Zval =  3.0
     Generated using ONCVPSP code by D. R. Hamann
     Using radial grid of 1534 points,  4 beta functions with: 
                l(1) =   0
                l(2) =   0
                l(3) =   1
                l(4) =   1

     PseudoPot. # 2 for N  read from file:
     /home/szhan213/Pseudopotential/pseudo-ONCV-proj/N_ONCV_PBE-1.0.upf
     MD5 check sum: 09890da6b2972017450f7114a6086fad
     Pseudo is Norm-conserving, Zval =  5.0
     Generated using ONCVPSP code by D. R. Hamann
     Using radial grid of 1058 points,  4 beta functions with: 
                l(1) =   0
                l(2) =   0
                l(3) =   1
                l(4) =   1

     atomic species   valence    mass     pseudopotential
        B              3.00    10.81100     B ( 1.00)
        N              5.00    14.00674     N ( 1.00)

     Starting magnetic structure 
     atomic species   magnetization
        B            0.000
        N            0.000

      4 Sym. Ops. (no inversion) found


                                    s                        frac. trans.

      isym =  1     identity                                     

 cryst.   s( 1) = (     1          0          0      )
                  (     0          1          0      )
                  (     0          0          1      )

 cart.    s( 1) = (  1.0000000  0.0000000  0.0000000 )
                  (  0.0000000  1.0000000  0.0000000 )
                  (  0.0000000  0.0000000  1.0000000 )


      isym =  2     180 deg rotation - cryst. axis [1,-1,0]      

 cryst.   s( 2) = (     0         -1          0      )
                  (    -1          0          0      )
                  (     0          0         -1      )

 cart.    s( 2) = (  0.5000000 -0.8660254  0.0000000 )
                  ( -0.8660254 -0.5000000  0.0000000 )
                  (  0.0000000  0.0000000 -1.0000000 )


      isym =  3     inv. 180 deg rotation - cart. axis [0,0,1]   

 cryst.   s( 3) = (     1          0          0      )
                  (     0          1          0      )
                  (     0          0         -1      )

 cart.    s( 3) = (  1.0000000  0.0000000  0.0000000 )
                  (  0.0000000  1.0000000  0.0000000 )
                  (  0.0000000  0.0000000 -1.0000000 )


      isym =  4     inv. 180 deg rotation - cryst. axis [1,1,0]  

 cryst.   s( 4) = (     0         -1          0      )
                  (    -1          0          0      )
                  (     0          0          1      )

 cart.    s( 4) = (  0.5000000 -0.8660254  0.0000000 )
                  ( -0.8660254 -0.5000000  0.0000000 )
                  (  0.0000000  0.0000000  1.0000000 )


   Cartesian axes

     site n.     atom                  positions (alat units)
         1           N   tau(   1) = (   0.0000005   0.0721685   0.0000000  )
         2           N   tau(   2) = (  -0.0624995   0.1804217   0.0000000  )
         3           N   tau(   3) = (  -0.1249995   0.2886749   0.0000000  )
         4           N   tau(   4) = (  -0.1874995   0.3969280   0.0000000  )
         5           N   tau(   5) = (  -0.2499995   0.5051812   0.0000000  )
         6           N   tau(   6) = (  -0.3124995   0.6134344   0.0000000  )
         7           N   tau(   7) = (  -0.3749995   0.7216876   0.0000000  )
         8           N   tau(   8) = (  -0.4374995   0.8299407   0.0000000  )
         9           N   tau(   9) = (   0.1250005   0.0721685   0.0000000  )
        10           N   tau(  10) = (   0.0625005   0.1804217   0.0000000  )
        11           N   tau(  11) = (   0.0000005   0.2886749   0.0000000  )
        12           N   tau(  12) = (  -0.0624995   0.3969280   0.0000000  )
        13           N   tau(  13) = (  -0.1249995   0.5051812   0.0000000  )
        14           N   tau(  14) = (  -0.1874995   0.6134344   0.0000000  )
        15           N   tau(  15) = (  -0.2499995   0.7216876   0.0000000  )
        16           N   tau(  16) = (  -0.3124995   0.8299407   0.0000000  )
        17           N   tau(  17) = (   0.2500005   0.0721685   0.0000000  )
        18           N   tau(  18) = (   0.1875005   0.1804217   0.0000000  )
        19           N   tau(  19) = (   0.1250005   0.2886749   0.0000000  )
        20           N   tau(  20) = (   0.0625005   0.3969280   0.0000000  )
        21           N   tau(  21) = (   0.0000005   0.5051812   0.0000000  )
        22           N   tau(  22) = (  -0.0624995   0.6134344   0.0000000  )
        23           N   tau(  23) = (  -0.1249995   0.7216876   0.0000000  )
        24           N   tau(  24) = (  -0.1874995   0.8299407   0.0000000  )
        25           N   tau(  25) = (   0.3750005   0.0721685   0.0000000  )
        26           N   tau(  26) = (   0.3125005   0.1804217   0.0000000  )
        27           N   tau(  27) = (   0.2500005   0.2886749   0.0000000  )
        28           N   tau(  28) = (   0.1875005   0.3969280   0.0000000  )
        29           N   tau(  29) = (   0.1250005   0.5051812   0.0000000  )
        30           N   tau(  30) = (   0.0625005   0.6134344   0.0000000  )
        31           N   tau(  31) = (   0.0000005   0.7216876   0.0000000  )
        32           N   tau(  32) = (  -0.0624995   0.8299407   0.0000000  )
        33           N   tau(  33) = (   0.5000005   0.0721685   0.0000000  )
        34           N   tau(  34) = (   0.4375005   0.1804217   0.0000000  )
        35           N   tau(  35) = (   0.3750005   0.2886749   0.0000000  )
        36           N   tau(  36) = (   0.2500005   0.5051812   0.0000000  )
        37           N   tau(  37) = (   0.1875005   0.6134344   0.0000000  )
        38           N   tau(  38) = (   0.1250005   0.7216876   0.0000000  )
        39           N   tau(  39) = (   0.0625005   0.8299407   0.0000000  )
        40           N   tau(  40) = (   0.6250005   0.0721685   0.0000000  )
        41           N   tau(  41) = (   0.5625005   0.1804217   0.0000000  )
        42           N   tau(  42) = (   0.5000005   0.2886749   0.0000000  )
        43           N   tau(  43) = (   0.4375005   0.3969280   0.0000000  )
        44           N   tau(  44) = (   0.3750005   0.5051812   0.0000000  )
        45           N   tau(  45) = (   0.3125005   0.6134344   0.0000000  )
        46           N   tau(  46) = (   0.2500005   0.7216876   0.0000000  )
        47           N   tau(  47) = (   0.1875005   0.8299407   0.0000000  )
        48           N   tau(  48) = (   0.7500005   0.0721685   0.0000000  )
        49           N   tau(  49) = (   0.6875005   0.1804217   0.0000000  )
        50           N   tau(  50) = (   0.6250005   0.2886749   0.0000000  )
        51           N   tau(  51) = (   0.5625005   0.3969280   0.0000000  )
        52           N   tau(  52) = (   0.5000005   0.5051812   0.0000000  )
        53           N   tau(  53) = (   0.4375005   0.6134344   0.0000000  )
        54           N   tau(  54) = (   0.3750005   0.7216876   0.0000000  )
        55           N   tau(  55) = (   0.3125005   0.8299407   0.0000000  )
        56           N   tau(  56) = (   0.8750005   0.0721685   0.0000000  )
        57           N   tau(  57) = (   0.8125005   0.1804217   0.0000000  )
        58           N   tau(  58) = (   0.7500005   0.2886749   0.0000000  )
        59           N   tau(  59) = (   0.6875005   0.3969280   0.0000000  )
        60           N   tau(  60) = (   0.6250005   0.5051812   0.0000000  )
        61           N   tau(  61) = (   0.5625005   0.6134344   0.0000000  )
        62           N   tau(  62) = (   0.5000005   0.7216876   0.0000000  )
        63           N   tau(  63) = (   0.4375005   0.8299407   0.0000000  )
        64           B   tau(  64) = (   0.0624995   0.0360847   0.0000000  )
        65           B   tau(  65) = (  -0.0000005   0.1443379   0.0000000  )
        66           B   tau(  66) = (  -0.0625005   0.2525910   0.0000000  )
        67           B   tau(  67) = (  -0.1250005   0.3608442   0.0000000  )
        68           B   tau(  68) = (  -0.1875005   0.4690974   0.0000000  )
        69           B   tau(  69) = (  -0.2500005   0.5773505   0.0000000  )
        70           B   tau(  70) = (  -0.3125005   0.6856037   0.0000000  )
        71           B   tau(  71) = (  -0.3750005   0.7938569   0.0000000  )
        72           B   tau(  72) = (   0.1874995   0.0360847   0.0000000  )
        73           B   tau(  73) = (   0.1249995   0.1443379   0.0000000  )
        74           B   tau(  74) = (   0.0624995   0.2525910   0.0000000  )
        75           B   tau(  75) = (  -0.0000005   0.3608442   0.0000000  )
        76           B   tau(  76) = (  -0.0625005   0.4690974   0.0000000  )
        77           B   tau(  77) = (  -0.1250005   0.5773505   0.0000000  )
        78           B   tau(  78) = (  -0.1875005   0.6856037   0.0000000  )
        79           B   tau(  79) = (  -0.2500005   0.7938569   0.0000000  )
        80           B   tau(  80) = (   0.3124995   0.0360847   0.0000000  )
        81           B   tau(  81) = (   0.2499995   0.1443379   0.0000000  )
        82           B   tau(  82) = (   0.1874995   0.2525910   0.0000000  )
        83           B   tau(  83) = (   0.1249995   0.3608442   0.0000000  )
        84           B   tau(  84) = (   0.0624995   0.4690974   0.0000000  )
        85           B   tau(  85) = (  -0.0000005   0.5773505   0.0000000  )
        86           B   tau(  86) = (  -0.0625005   0.6856037   0.0000000  )
        87           B   tau(  87) = (  -0.1250005   0.7938569   0.0000000  )
        88           B   tau(  88) = (   0.4374995   0.0360847   0.0000000  )
        89           B   tau(  89) = (   0.3749995   0.1443379   0.0000000  )
        90           B   tau(  90) = (   0.3124995   0.2525910   0.0000000  )
        91           B   tau(  91) = (   0.2499995   0.3608442   0.0000000  )
        92           B   tau(  92) = (   0.1874995   0.4690974   0.0000000  )
        93           B   tau(  93) = (   0.1249995   0.5773505   0.0000000  )
        94           B   tau(  94) = (   0.0624995   0.6856037   0.0000000  )
        95           B   tau(  95) = (  -0.0000005   0.7938569   0.0000000  )
        96           B   tau(  96) = (   0.5624995   0.0360847   0.0000000  )
        97           B   tau(  97) = (   0.4999995   0.1443379   0.0000000  )
        98           B   tau(  98) = (   0.4374995   0.2525910   0.0000000  )
        99           B   tau(  99) = (   0.3749995   0.3608442   0.0000000  )
       100           B   tau( 100) = (   0.3124995   0.4690974   0.0000000  )
       101           B   tau( 101) = (   0.2499995   0.5773505   0.0000000  )
       102           B   tau( 102) = (   0.1874995   0.6856037   0.0000000  )
       103           B   tau( 103) = (   0.1249995   0.7938569   0.0000000  )
       104           B   tau( 104) = (   0.6874995   0.0360847   0.0000000  )
       105           B   tau( 105) = (   0.6249995   0.1443379   0.0000000  )
       106           B   tau( 106) = (   0.5624995   0.2525910   0.0000000  )
       107           B   tau( 107) = (   0.4999995   0.3608442   0.0000000  )
       108           B   tau( 108) = (   0.4374995   0.4690974   0.0000000  )
       109           B   tau( 109) = (   0.3749995   0.5773505   0.0000000  )
       110           B   tau( 110) = (   0.3124995   0.6856037   0.0000000  )
       111           B   tau( 111) = (   0.2499995   0.7938569   0.0000000  )
       112           B   tau( 112) = (   0.8124995   0.0360847   0.0000000  )
       113           B   tau( 113) = (   0.7499995   0.1443379   0.0000000  )
       114           B   tau( 114) = (   0.6874995   0.2525910   0.0000000  )
       115           B   tau( 115) = (   0.6249995   0.3608442   0.0000000  )
       116           B   tau( 116) = (   0.5624995   0.4690974   0.0000000  )
       117           B   tau( 117) = (   0.4999995   0.5773505   0.0000000  )
       118           B   tau( 118) = (   0.4374995   0.6856037   0.0000000  )
       119           B   tau( 119) = (   0.3749995   0.7938569   0.0000000  )
       120           B   tau( 120) = (   0.9374995   0.0360847   0.0000000  )
       121           B   tau( 121) = (   0.8749995   0.1443379   0.0000000  )
       122           B   tau( 122) = (   0.8124995   0.2525910   0.0000000  )
       123           B   tau( 123) = (   0.7499995   0.3608442   0.0000000  )
       124           B   tau( 124) = (   0.6874995   0.4690974   0.0000000  )
       125           B   tau( 125) = (   0.6249995   0.5773505   0.0000000  )
       126           B   tau( 126) = (   0.5624995   0.6856037   0.0000000  )
       127           B   tau( 127) = (   0.4999995   0.7938569   0.0000000  )

   Crystallographic axes

     site n.     atom                  positions (cryst. coord.)
         1           N   tau(   1) = (  0.0416670  0.0833330  0.0000000  )
         2           N   tau(   2) = (  0.0416670  0.2083330  0.0000000  )
         3           N   tau(   3) = (  0.0416670  0.3333330  0.0000000  )
         4           N   tau(   4) = (  0.0416670  0.4583330  0.0000000  )
         5           N   tau(   5) = (  0.0416670  0.5833330  0.0000000  )
         6           N   tau(   6) = (  0.0416670  0.7083330  0.0000000  )
         7           N   tau(   7) = (  0.0416670  0.8333330  0.0000000  )
         8           N   tau(   8) = (  0.0416670  0.9583330  0.0000000  )
         9           N   tau(   9) = (  0.1666670  0.0833330  0.0000000  )
        10           N   tau(  10) = (  0.1666670  0.2083330  0.0000000  )
        11           N   tau(  11) = (  0.1666670  0.3333330  0.0000000  )
        12           N   tau(  12) = (  0.1666670  0.4583330  0.0000000  )
        13           N   tau(  13) = (  0.1666670  0.5833330  0.0000000  )
        14           N   tau(  14) = (  0.1666670  0.7083330  0.0000000  )
        15           N   tau(  15) = (  0.1666670  0.8333330  0.0000000  )
        16           N   tau(  16) = (  0.1666670  0.9583330  0.0000000  )
        17           N   tau(  17) = (  0.2916670  0.0833330  0.0000000  )
        18           N   tau(  18) = (  0.2916670  0.2083330  0.0000000  )
        19           N   tau(  19) = (  0.2916670  0.3333330  0.0000000  )
        20           N   tau(  20) = (  0.2916670  0.4583330  0.0000000  )
        21           N   tau(  21) = (  0.2916670  0.5833330  0.0000000  )
        22           N   tau(  22) = (  0.2916670  0.7083330  0.0000000  )
        23           N   tau(  23) = (  0.2916670  0.8333330  0.0000000  )
        24           N   tau(  24) = (  0.2916670  0.9583330  0.0000000  )
        25           N   tau(  25) = (  0.4166670  0.0833330  0.0000000  )
        26           N   tau(  26) = (  0.4166670  0.2083330  0.0000000  )
        27           N   tau(  27) = (  0.4166670  0.3333330  0.0000000  )
        28           N   tau(  28) = (  0.4166670  0.4583330  0.0000000  )
        29           N   tau(  29) = (  0.4166670  0.5833330  0.0000000  )
        30           N   tau(  30) = (  0.4166670  0.7083330  0.0000000  )
        31           N   tau(  31) = (  0.4166670  0.8333330  0.0000000  )
        32           N   tau(  32) = (  0.4166670  0.9583330  0.0000000  )
        33           N   tau(  33) = (  0.5416670  0.0833330  0.0000000  )
        34           N   tau(  34) = (  0.5416670  0.2083330  0.0000000  )
        35           N   tau(  35) = (  0.5416670  0.3333330  0.0000000  )
        36           N   tau(  36) = (  0.5416670  0.5833330  0.0000000  )
        37           N   tau(  37) = (  0.5416670  0.7083330  0.0000000  )
        38           N   tau(  38) = (  0.5416670  0.8333330  0.0000000  )
        39           N   tau(  39) = (  0.5416670  0.9583330  0.0000000  )
        40           N   tau(  40) = (  0.6666670  0.0833330  0.0000000  )
        41           N   tau(  41) = (  0.6666670  0.2083330  0.0000000  )
        42           N   tau(  42) = (  0.6666670  0.3333330  0.0000000  )
        43           N   tau(  43) = (  0.6666670  0.4583330  0.0000000  )
        44           N   tau(  44) = (  0.6666670  0.5833330  0.0000000  )
        45           N   tau(  45) = (  0.6666670  0.7083330  0.0000000  )
        46           N   tau(  46) = (  0.6666670  0.8333330  0.0000000  )
        47           N   tau(  47) = (  0.6666670  0.9583330  0.0000000  )
        48           N   tau(  48) = (  0.7916670  0.0833330  0.0000000  )
        49           N   tau(  49) = (  0.7916670  0.2083330  0.0000000  )
        50           N   tau(  50) = (  0.7916670  0.3333330  0.0000000  )
        51           N   tau(  51) = (  0.7916670  0.4583330  0.0000000  )
        52           N   tau(  52) = (  0.7916670  0.5833330  0.0000000  )
        53           N   tau(  53) = (  0.7916670  0.7083330  0.0000000  )
        54           N   tau(  54) = (  0.7916670  0.8333330  0.0000000  )
        55           N   tau(  55) = (  0.7916670  0.9583330  0.0000000  )
        56           N   tau(  56) = (  0.9166670  0.0833330  0.0000000  )
        57           N   tau(  57) = (  0.9166670  0.2083330  0.0000000  )
        58           N   tau(  58) = (  0.9166670  0.3333330  0.0000000  )
        59           N   tau(  59) = (  0.9166670  0.4583330  0.0000000  )
        60           N   tau(  60) = (  0.9166670  0.5833330  0.0000000  )
        61           N   tau(  61) = (  0.9166670  0.7083330  0.0000000  )
        62           N   tau(  62) = (  0.9166670  0.8333330  0.0000000  )
        63           N   tau(  63) = (  0.9166670  0.9583330  0.0000000  )
        64           B   tau(  64) = (  0.0833330  0.0416670  0.0000000  )
        65           B   tau(  65) = (  0.0833330  0.1666670  0.0000000  )
        66           B   tau(  66) = (  0.0833330  0.2916670  0.0000000  )
        67           B   tau(  67) = (  0.0833330  0.4166670  0.0000000  )
        68           B   tau(  68) = (  0.0833330  0.5416670  0.0000000  )
        69           B   tau(  69) = (  0.0833330  0.6666670  0.0000000  )
        70           B   tau(  70) = (  0.0833330  0.7916670  0.0000000  )
        71           B   tau(  71) = (  0.0833330  0.9166670  0.0000000  )
        72           B   tau(  72) = (  0.2083330  0.0416670  0.0000000  )
        73           B   tau(  73) = (  0.2083330  0.1666670  0.0000000  )
        74           B   tau(  74) = (  0.2083330  0.2916670  0.0000000  )
        75           B   tau(  75) = (  0.2083330  0.4166670  0.0000000  )
        76           B   tau(  76) = (  0.2083330  0.5416670  0.0000000  )
        77           B   tau(  77) = (  0.2083330  0.6666670  0.0000000  )
        78           B   tau(  78) = (  0.2083330  0.7916670  0.0000000  )
        79           B   tau(  79) = (  0.2083330  0.9166670  0.0000000  )
        80           B   tau(  80) = (  0.3333330  0.0416670  0.0000000  )
        81           B   tau(  81) = (  0.3333330  0.1666670  0.0000000  )
        82           B   tau(  82) = (  0.3333330  0.2916670  0.0000000  )
        83           B   tau(  83) = (  0.3333330  0.4166670  0.0000000  )
        84           B   tau(  84) = (  0.3333330  0.5416670  0.0000000  )
        85           B   tau(  85) = (  0.3333330  0.6666670  0.0000000  )
        86           B   tau(  86) = (  0.3333330  0.7916670  0.0000000  )
        87           B   tau(  87) = (  0.3333330  0.9166670  0.0000000  )
        88           B   tau(  88) = (  0.4583330  0.0416670  0.0000000  )
        89           B   tau(  89) = (  0.4583330  0.1666670  0.0000000  )
        90           B   tau(  90) = (  0.4583330  0.2916670  0.0000000  )
        91           B   tau(  91) = (  0.4583330  0.4166670  0.0000000  )
        92           B   tau(  92) = (  0.4583330  0.5416670  0.0000000  )
        93           B   tau(  93) = (  0.4583330  0.6666670  0.0000000  )
        94           B   tau(  94) = (  0.4583330  0.7916670  0.0000000  )
        95           B   tau(  95) = (  0.4583330  0.9166670  0.0000000  )
        96           B   tau(  96) = (  0.5833330  0.0416670  0.0000000  )
        97           B   tau(  97) = (  0.5833330  0.1666670  0.0000000  )
        98           B   tau(  98) = (  0.5833330  0.2916670  0.0000000  )
        99           B   tau(  99) = (  0.5833330  0.4166670  0.0000000  )
       100           B   tau( 100) = (  0.5833330  0.5416670  0.0000000  )
       101           B   tau( 101) = (  0.5833330  0.6666670  0.0000000  )
       102           B   tau( 102) = (  0.5833330  0.7916670  0.0000000  )
       103           B   tau( 103) = (  0.5833330  0.9166670  0.0000000  )
       104           B   tau( 104) = (  0.7083330  0.0416670  0.0000000  )
       105           B   tau( 105) = (  0.7083330  0.1666670  0.0000000  )
       106           B   tau( 106) = (  0.7083330  0.2916670  0.0000000  )
       107           B   tau( 107) = (  0.7083330  0.4166670  0.0000000  )
       108           B   tau( 108) = (  0.7083330  0.5416670  0.0000000  )
       109           B   tau( 109) = (  0.7083330  0.6666670  0.0000000  )
       110           B   tau( 110) = (  0.7083330  0.7916670  0.0000000  )
       111           B   tau( 111) = (  0.7083330  0.9166670  0.0000000  )
       112           B   tau( 112) = (  0.8333330  0.0416670  0.0000000  )
       113           B   tau( 113) = (  0.8333330  0.1666670  0.0000000  )
       114           B   tau( 114) = (  0.8333330  0.2916670  0.0000000  )
       115           B   tau( 115) = (  0.8333330  0.4166670  0.0000000  )
       116           B   tau( 116) = (  0.8333330  0.5416670  0.0000000  )
       117           B   tau( 117) = (  0.8333330  0.6666670  0.0000000  )
       118           B   tau( 118) = (  0.8333330  0.7916670  0.0000000  )
       119           B   tau( 119) = (  0.8333330  0.9166670  0.0000000  )
       120           B   tau( 120) = (  0.9583330  0.0416670  0.0000000  )
       121           B   tau( 121) = (  0.9583330  0.1666670  0.0000000  )
       122           B   tau( 122) = (  0.9583330  0.2916670  0.0000000  )
       123           B   tau( 123) = (  0.9583330  0.4166670  0.0000000  )
       124           B   tau( 124) = (  0.9583330  0.5416670  0.0000000  )
       125           B   tau( 125) = (  0.9583330  0.6666670  0.0000000  )
       126           B   tau( 126) = (  0.9583330  0.7916670  0.0000000  )
       127           B   tau( 127) = (  0.9583330  0.9166670  0.0000000  )

     number of k points=     1  Marzari-Vanderbilt smearing, width (Ry)=  0.0001
                       cart. coord. in units 2pi/alat
        k(    1) = (   0.0000000   0.0000000   0.0000000), wk =   1.0000000

                       cryst. coord.
        k(    1) = (   0.0000000   0.0000000   0.0000000), wk =   1.0000000

     Dense  grid:  1563621 G-vectors     FFT dimensions: ( 192, 192, 200)

     Dynamical RAM for                 wfc:     100.64 MB

     Dynamical RAM for     wfc (w. buffer):     100.64 MB

     Dynamical RAM for           str. fact:       5.96 MB

     Dynamical RAM for           local pot:       0.00 MB

     Dynamical RAM for          nlocal pot:     378.69 MB

     Dynamical RAM for                qrad:       4.28 MB

     Dynamical RAM for          rho,v,vnew:      60.08 MB

     Dynamical RAM for               rhoin:      20.03 MB

     Dynamical RAM for            rho*nmix:      95.44 MB

     Dynamical RAM for           G-vectors:      12.68 MB

     Dynamical RAM for          h,s,v(r/c):      26.70 MB

     Dynamical RAM for          <psi|beta>:       2.09 MB

     Dynamical RAM for                 psi:     402.54 MB

     Dynamical RAM for                hpsi:     402.54 MB

     Dynamical RAM for      wfcinit/wfcrot:     384.60 MB

     Estimated static dynamical RAM per process >     728.93 MB

     Estimated max dynamical RAM per process >       1.53 GB

     Estimated total dynamical RAM >      48.84 GB
     Generating pointlists ...
     new r_m :   0.0298 (alat units)  1.1287 (a.u.) for type    1
     new r_m :   0.0298 (alat units)  1.1287 (a.u.) for type    2

     Initial potential from superposition of free atoms

     starting charge  506.98358, renormalised to  508.00000

     negative rho (up, down):  3.638E-03 0.000E+00
     Starting wfcs are  508 randomized atomic wfcs

     total cpu time spent up to now is       19.5 secs

     Self-consistent Calculation

     iteration #  1     ecut=    60.00 Ry     beta= 0.70
     Davidson diagonalization with overlap
     ethr =  5.00E-06,  avg # of iterations = 14.0

     negative rho (up, down):  9.984E-04 7.231E-04

     total cpu time spent up to now is       59.0 secs

     total energy              =   -1620.38829436 Ry
     Harris-Foulkes estimate   =   -1635.89811408 Ry
     estimated scf accuracy    <      23.32854615 Ry

     total magnetization       =     2.00 Bohr mag/cell
     absolute magnetization    =     2.00 Bohr mag/cell

     iteration #  2     ecut=    60.00 Ry     beta= 0.70
     Davidson diagonalization with overlap
     ethr =  4.59E-03,  avg # of iterations =  5.0

     negative rho (up, down):  5.301E-04 2.691E-03

     total cpu time spent up to now is       77.2 secs

     total energy              =   -1625.16108590 Ry
     Harris-Foulkes estimate   =   -1631.38687394 Ry
     estimated scf accuracy    <      11.92837043 Ry

     total magnetization       =     2.00 Bohr mag/cell
     absolute magnetization    =     2.33 Bohr mag/cell

     iteration #  3     ecut=    60.00 Ry     beta= 0.70
     Davidson diagonalization with overlap
     ethr =  2.35E-03,  avg # of iterations =  8.5

     negative rho (up, down):  2.737E-04 4.235E-03

     total cpu time spent up to now is       95.9 secs

     total energy              =   -1627.28846055 Ry
     Harris-Foulkes estimate   =   -1628.20272633 Ry
     estimated scf accuracy    <       1.81820000 Ry

     total magnetization       =     2.00 Bohr mag/cell
     absolute magnetization    =     2.25 Bohr mag/cell

     iteration #  4     ecut=    60.00 Ry     beta= 0.70
     Davidson diagonalization with overlap
     ethr =  3.58E-04,  avg # of iterations = 19.0

     negative rho (up, down):  1.217E-05 5.970E-03

     total cpu time spent up to now is      119.5 secs

     total energy              =   -1627.86562877 Ry
     Harris-Foulkes estimate   =   -1628.14751136 Ry
     estimated scf accuracy    <       0.86553130 Ry

     total magnetization       =     2.00 Bohr mag/cell
     absolute magnetization    =     2.40 Bohr mag/cell

     iteration #  5     ecut=    60.00 Ry     beta= 0.70
     Davidson diagonalization with overlap
     c_bands:  1 eigenvalues not converged
     ethr =  1.70E-04,  avg # of iterations = 19.0

     negative rho (up, down):  0.000E+00 5.766E-02

     total cpu time spent up to now is      139.9 secs

     total energy              =   -1627.93822283 Ry
     Harris-Foulkes estimate   =   -1627.95598403 Ry
     estimated scf accuracy    <       0.10201489 Ry

     total magnetization       =     2.00 Bohr mag/cell
     absolute magnetization    =     2.43 Bohr mag/cell

     iteration #  6     ecut=    60.00 Ry     beta= 0.70
     Davidson diagonalization with overlap
     ethr =  2.01E-05,  avg # of iterations = 19.0

     negative rho (up, down):  0.000E+00 3.189E-02

     total cpu time spent up to now is      159.6 secs

     total energy              =   -1627.94065143 Ry
     Harris-Foulkes estimate   =   -1627.94688522 Ry
     estimated scf accuracy    <       0.03538797 Ry

     total magnetization       =     2.00 Bohr mag/cell
     absolute magnetization    =     2.42 Bohr mag/cell

     iteration #  7     ecut=    60.00 Ry     beta= 0.70
     Davidson diagonalization with overlap
     c_bands:  1 eigenvalues not converged
     ethr =  6.97E-06,  avg # of iterations = 15.5

     negative rho (up, down):  0.000E+00 1.205E-03

     total cpu time spent up to now is      178.8 secs

     total energy              =   -1627.92483036 Ry
     Harris-Foulkes estimate   =   -1627.95014199 Ry
     estimated scf accuracy    <       0.17079936 Ry

     total magnetization       =     2.00 Bohr mag/cell
     absolute magnetization    =     2.35 Bohr mag/cell

     iteration #  8     ecut=    60.00 Ry     beta= 0.70
     Davidson diagonalization with overlap
     ethr =  6.97E-06,  avg # of iterations = 13.0

     total cpu time spent up to now is      196.8 secs

     total energy              =   -1627.94792216 Ry
     Harris-Foulkes estimate   =   -1627.95217994 Ry
     estimated scf accuracy    <       0.04447982 Ry

     total magnetization       =     2.00 Bohr mag/cell
     absolute magnetization    =     2.37 Bohr mag/cell

     iteration #  9     ecut=    60.00 Ry     beta= 0.70
     Davidson diagonalization with overlap
     ethr =  6.97E-06,  avg # of iterations = 10.5

     total cpu time spent up to now is      213.5 secs

     total energy              =   -1627.94717392 Ry
     Harris-Foulkes estimate   =   -1627.94953356 Ry
     estimated scf accuracy    <       0.03232735 Ry

     total magnetization       =     2.00 Bohr mag/cell
     absolute magnetization    =     2.35 Bohr mag/cell

     iteration # 10     ecut=    60.00 Ry     beta= 0.70
     Davidson diagonalization with overlap
     ethr =  6.36E-06,  avg # of iterations =  7.5

     total cpu time spent up to now is      228.1 secs

     total energy              =   -1627.94542124 Ry
     Harris-Foulkes estimate   =   -1627.94751034 Ry
     estimated scf accuracy    <       0.02508493 Ry

     total magnetization       =     2.00 Bohr mag/cell
     absolute magnetization    =     2.33 Bohr mag/cell

     iteration # 11     ecut=    60.00 Ry     beta= 0.70
     Davidson diagonalization with overlap
     ethr =  4.94E-06,  avg # of iterations =  9.5

     total cpu time spent up to now is      244.1 secs

     total energy              =   -1627.94402459 Ry
     Harris-Foulkes estimate   =   -1627.94565662 Ry
     estimated scf accuracy    <       0.01750312 Ry

     total magnetization       =     2.00 Bohr mag/cell
     absolute magnetization    =     2.31 Bohr mag/cell

     iteration # 12     ecut=    60.00 Ry     beta= 0.70
     Davidson diagonalization with overlap
     ethr =  3.45E-06,  avg # of iterations = 11.0

     total cpu time spent up to now is      260.6 secs

     total energy              =   -1627.94122612 Ry
     Harris-Foulkes estimate   =   -1627.94540698 Ry
     estimated scf accuracy    <       0.14104280 Ry

     total magnetization       =     2.00 Bohr mag/cell
     absolute magnetization    =     2.23 Bohr mag/cell

     iteration # 13     ecut=    60.00 Ry     beta= 0.70
     Davidson diagonalization with overlap
     ethr =  3.45E-06,  avg # of iterations =  7.5

     total cpu time spent up to now is      274.6 secs

     total energy              =   -1627.94531170 Ry
     Harris-Foulkes estimate   =   -1627.94549889 Ry
     estimated scf accuracy    <       0.01525892 Ry

     total magnetization       =     2.00 Bohr mag/cell
     absolute magnetization    =     2.30 Bohr mag/cell

     iteration # 14     ecut=    60.00 Ry     beta= 0.70
     Davidson diagonalization with overlap
     ethr =  3.00E-06,  avg # of iterations =  3.0

     total cpu time spent up to now is      287.4 secs

     total energy              =   -1627.94517514 Ry
     Harris-Foulkes estimate   =   -1627.94532911 Ry
     estimated scf accuracy    <       0.01437335 Ry

     total magnetization       =     2.00 Bohr mag/cell
     absolute magnetization    =     2.29 Bohr mag/cell

     iteration # 15     ecut=    60.00 Ry     beta= 0.70
     Davidson diagonalization with overlap
     ethr =  2.83E-06,  avg # of iterations =  3.0

     total cpu time spent up to now is      300.3 secs

     total energy              =   -1627.94490381 Ry
     Harris-Foulkes estimate   =   -1627.94518275 Ry
     estimated scf accuracy    <       0.01363351 Ry

     total magnetization       =     2.00 Bohr mag/cell
     absolute magnetization    =     2.28 Bohr mag/cell

     iteration # 16     ecut=    60.00 Ry     beta= 0.70
     Davidson diagonalization with overlap
     ethr =  2.68E-06,  avg # of iterations =  5.5

     total cpu time spent up to now is      313.7 secs

     total energy              =   -1627.94488881 Ry
     Harris-Foulkes estimate   =   -1627.94490682 Ry
     estimated scf accuracy    <       0.01201355 Ry

     total magnetization       =     2.00 Bohr mag/cell
     absolute magnetization    =     2.28 Bohr mag/cell

     iteration # 17     ecut=    60.00 Ry     beta= 0.70
     Davidson diagonalization with overlap
     ethr =  2.36E-06,  avg # of iterations =  1.0

     total cpu time spent up to now is      325.5 secs

     total energy              =   -1627.94482512 Ry
     Harris-Foulkes estimate   =   -1627.94489091 Ry
     estimated scf accuracy    <       0.01189700 Ry

     total magnetization       =     2.00 Bohr mag/cell
     absolute magnetization    =     2.27 Bohr mag/cell

     iteration # 18     ecut=    60.00 Ry     beta= 0.70
     Davidson diagonalization with overlap
     ethr =  2.34E-06,  avg # of iterations =  1.0

     total cpu time spent up to now is      337.4 secs

     total energy              =   -1627.94481312 Ry
     Harris-Foulkes estimate   =   -1627.94483549 Ry
     estimated scf accuracy    <       0.01122773 Ry

     total magnetization       =     2.00 Bohr mag/cell
     absolute magnetization    =     2.27 Bohr mag/cell

     iteration # 19     ecut=    60.00 Ry     beta= 0.70
     Davidson diagonalization with overlap
     ethr =  2.21E-06,  avg # of iterations =  1.0

     total cpu time spent up to now is      349.3 secs

     total energy              =   -1627.94483322 Ry
     Harris-Foulkes estimate   =   -1627.94480658 Ry
     estimated scf accuracy    <       0.01068719 Ry

     total magnetization       =     2.00 Bohr mag/cell
     absolute magnetization    =     2.27 Bohr mag/cell

     iteration # 20     ecut=    60.00 Ry     beta= 0.70
     Davidson diagonalization with overlap
     ethr =  2.10E-06,  avg # of iterations =  1.0

     total cpu time spent up to now is      361.1 secs

     total energy              =   -1627.94496367 Ry
     Harris-Foulkes estimate   =   -1627.94484199 Ry
     estimated scf accuracy    <       0.01102719 Ry

     total magnetization       =     2.00 Bohr mag/cell
     absolute magnetization    =     2.27 Bohr mag/cell

     iteration # 21     ecut=    60.00 Ry     beta= 0.70
     Davidson diagonalization with overlap
     ethr =  2.10E-06,  avg # of iterations =  1.0

     total cpu time spent up to now is      373.2 secs

     total energy              =   -1627.94184198 Ry
     Harris-Foulkes estimate   =   -1627.94495856 Ry
     estimated scf accuracy    <       0.01206701 Ry

     total magnetization       =     2.00 Bohr mag/cell
     absolute magnetization    =     2.27 Bohr mag/cell

     iteration # 22     ecut=    60.00 Ry     beta= 0.70
     Davidson diagonalization with overlap
     ethr =  2.10E-06,  avg # of iterations = 11.5

     total cpu time spent up to now is      391.3 secs

     total energy              =   -1627.94536445 Ry
     Harris-Foulkes estimate   =   -1627.95401464 Ry
     estimated scf accuracy    <       0.20011838 Ry

     total magnetization       =     2.00 Bohr mag/cell
     absolute magnetization    =     2.19 Bohr mag/cell

     iteration # 23     ecut=    60.00 Ry     beta= 0.70
     Davidson diagonalization with overlap
     ethr =  2.10E-06,  avg # of iterations = 13.0

     total cpu time spent up to now is      408.8 secs

     total energy              =   -1627.94418569 Ry
     Harris-Foulkes estimate   =   -1627.94595695 Ry
     estimated scf accuracy    <       0.15570024 Ry

     total magnetization       =     2.00 Bohr mag/cell
     absolute magnetization    =     2.18 Bohr mag/cell

     iteration # 24     ecut=    60.00 Ry     beta= 0.70
     Davidson diagonalization with overlap
     ethr =  2.10E-06,  avg # of iterations =  6.0

     total cpu time spent up to now is      422.5 secs

     total energy              =   -1627.94465735 Ry
     Harris-Foulkes estimate   =   -1627.94463927 Ry
     estimated scf accuracy    <       0.00337317 Ry

     total magnetization       =     2.00 Bohr mag/cell
     absolute magnetization    =     2.24 Bohr mag/cell

     iteration # 25     ecut=    60.00 Ry     beta= 0.70
     Davidson diagonalization with overlap
     ethr =  6.64E-07,  avg # of iterations =  6.5

     total cpu time spent up to now is      436.6 secs

     total energy              =   -1627.94452837 Ry
     Harris-Foulkes estimate   =   -1627.94467161 Ry
     estimated scf accuracy    <       0.00598938 Ry

     total magnetization       =     2.00 Bohr mag/cell
     absolute magnetization    =     2.25 Bohr mag/cell

     iteration # 26     ecut=    60.00 Ry     beta= 0.70
     Davidson diagonalization with overlap
     ethr =  6.64E-07,  avg # of iterations =  4.5

     total cpu time spent up to now is      450.4 secs

     total energy              =   -1627.94450489 Ry
     Harris-Foulkes estimate   =   -1627.94486569 Ry
     estimated scf accuracy    <       0.11983742 Ry

     total magnetization       =     2.00 Bohr mag/cell
     absolute magnetization    =     2.18 Bohr mag/cell

     iteration # 27     ecut=    60.00 Ry     beta= 0.70
     Davidson diagonalization with overlap
     ethr =  6.64E-07,  avg # of iterations =  3.5

     total cpu time spent up to now is      463.6 secs

     total energy              =   -1627.94465039 Ry
     Harris-Foulkes estimate   =   -1627.94463489 Ry
     estimated scf accuracy    <       0.00085540 Ry

     total magnetization       =     2.00 Bohr mag/cell
     absolute magnetization    =     2.21 Bohr mag/cell

     iteration # 28     ecut=    60.00 Ry     beta= 0.70
     Davidson diagonalization with overlap
     ethr =  1.68E-07,  avg # of iterations =  5.5

     total cpu time spent up to now is      477.5 secs

     total energy              =   -1627.94457782 Ry
     Harris-Foulkes estimate   =   -1627.94474622 Ry
     estimated scf accuracy    <       0.08656074 Ry

     total magnetization       =     2.00 Bohr mag/cell
     absolute magnetization    =     2.18 Bohr mag/cell

     iteration # 29     ecut=    60.00 Ry     beta= 0.70
     Davidson diagonalization with overlap
     ethr =  1.68E-07,  avg # of iterations =  3.0

     total cpu time spent up to now is      490.4 secs

     total energy              =   -1627.94464537 Ry
     Harris-Foulkes estimate   =   -1627.94464004 Ry
     estimated scf accuracy    <       0.00384101 Ry

     total magnetization       =     2.00 Bohr mag/cell
     absolute magnetization    =     2.20 Bohr mag/cell

     iteration # 30     ecut=    60.00 Ry     beta= 0.70
     Davidson diagonalization with overlap
     ethr =  1.68E-07,  avg # of iterations =  1.0

     total cpu time spent up to now is      502.3 secs

     total energy              =   -1627.94478097 Ry
     Harris-Foulkes estimate   =   -1627.94464844 Ry
     estimated scf accuracy    <       0.01248172 Ry

     total magnetization       =     2.00 Bohr mag/cell
     absolute magnetization    =     2.19 Bohr mag/cell

     iteration # 31     ecut=    60.00 Ry     beta= 0.70
     Davidson diagonalization with overlap
     ethr =  1.68E-07,  avg # of iterations =  7.0

     total cpu time spent up to now is      516.6 secs

     total energy              =   -1627.94498015 Ry
     Harris-Foulkes estimate   =   -1627.94503446 Ry
     estimated scf accuracy    <       0.13951450 Ry

     total magnetization       =     2.00 Bohr mag/cell
     absolute magnetization    =     2.18 Bohr mag/cell

     iteration # 32     ecut=    60.00 Ry     beta= 0.70
     Davidson diagonalization with overlap
     ethr =  1.68E-07,  avg # of iterations =  1.0

     total cpu time spent up to now is      528.4 secs

     total energy              =   -1627.94449504 Ry
     Harris-Foulkes estimate   =   -1627.94498082 Ry
     estimated scf accuracy    <       0.13682546 Ry

     total magnetization       =     2.00 Bohr mag/cell
     absolute magnetization    =     2.18 Bohr mag/cell

     iteration # 33     ecut=    60.00 Ry     beta= 0.70
     Davidson diagonalization with overlap
     ethr =  1.68E-07,  avg # of iterations =  6.0

     total cpu time spent up to now is      542.2 secs

     total energy              =   -1627.94463222 Ry
     Harris-Foulkes estimate   =   -1627.94463530 Ry
     estimated scf accuracy    <       0.00169428 Ry

     total magnetization       =     2.00 Bohr mag/cell
     absolute magnetization    =     2.20 Bohr mag/cell

     iteration # 34     ecut=    60.00 Ry     beta= 0.70
     Davidson diagonalization with overlap
     ethr =  1.68E-07,  avg # of iterations =  1.5

     total cpu time spent up to now is      554.3 secs

     total energy              =   -1627.94462678 Ry
     Harris-Foulkes estimate   =   -1627.94463691 Ry
     estimated scf accuracy    <       0.00030696 Ry

     total magnetization       =     2.00 Bohr mag/cell
     absolute magnetization    =     2.22 Bohr mag/cell

     iteration # 35     ecut=    60.00 Ry     beta= 0.70
     Davidson diagonalization with overlap
     ethr =  6.04E-08,  avg # of iterations =  6.0

     total cpu time spent up to now is      567.8 secs

     total energy              =   -1627.94469396 Ry
     Harris-Foulkes estimate   =   -1627.94469546 Ry
     estimated scf accuracy    <       0.05767543 Ry

     total magnetization       =     2.00 Bohr mag/cell
     absolute magnetization    =     2.18 Bohr mag/cell

     iteration # 36     ecut=    60.00 Ry     beta= 0.70
     Davidson diagonalization with overlap
     ethr =  6.04E-08,  avg # of iterations =  1.5

     total cpu time spent up to now is      579.9 secs

     total energy              =   -1627.94470108 Ry
     Harris-Foulkes estimate   =   -1627.94469416 Ry
     estimated scf accuracy    <       0.05666453 Ry

     total magnetization       =     2.00 Bohr mag/cell
     absolute magnetization    =     2.18 Bohr mag/cell

     iteration # 37     ecut=    60.00 Ry     beta= 0.70
     Davidson diagonalization with overlap
     ethr =  6.04E-08,  avg # of iterations =  1.0

     total cpu time spent up to now is      591.7 secs

     total energy              =   -1627.94466281 Ry
     Harris-Foulkes estimate   =   -1627.94470143 Ry
     estimated scf accuracy    <       0.06402003 Ry

     total magnetization       =     2.00 Bohr mag/cell
     absolute magnetization    =     2.18 Bohr mag/cell

     iteration # 38     ecut=    60.00 Ry     beta= 0.70
     Davidson diagonalization with overlap
     ethr =  6.04E-08,  avg # of iterations =  1.0

     total cpu time spent up to now is      603.7 secs

     total energy              =   -1627.94469024 Ry
     Harris-Foulkes estimate   =   -1627.94466899 Ry
     estimated scf accuracy    <       0.03232638 Ry

     total magnetization       =     2.00 Bohr mag/cell
     absolute magnetization    =     2.18 Bohr mag/cell

     iteration # 39     ecut=    60.00 Ry     beta= 0.70
     Davidson diagonalization with overlap
     ethr =  6.04E-08,  avg # of iterations =  1.0

     total cpu time spent up to now is      615.5 secs

     total energy              =   -1627.94469458 Ry
     Harris-Foulkes estimate   =   -1627.94469350 Ry
     estimated scf accuracy    <       0.05389260 Ry

     total magnetization       =     2.00 Bohr mag/cell
     absolute magnetization    =     2.18 Bohr mag/cell

     iteration # 40     ecut=    60.00 Ry     beta= 0.70
     Davidson diagonalization with overlap
     ethr =  6.04E-08,  avg # of iterations =  1.0

     total cpu time spent up to now is      627.4 secs

     total energy              =   -1627.94469541 Ry
     Harris-Foulkes estimate   =   -1627.94469462 Ry
     estimated scf accuracy    <       0.05282498 Ry

     total magnetization       =     2.00 Bohr mag/cell
     absolute magnetization    =     2.18 Bohr mag/cell

     iteration # 41     ecut=    60.00 Ry     beta= 0.70
     Davidson diagonalization with overlap
     ethr =  6.04E-08,  avg # of iterations =  1.0

     total cpu time spent up to now is      639.3 secs

     total energy              =   -1627.94457666 Ry
     Harris-Foulkes estimate   =   -1627.94469542 Ry
     estimated scf accuracy    <       0.05367929 Ry

     total magnetization       =     2.00 Bohr mag/cell
     absolute magnetization    =     2.18 Bohr mag/cell

     iteration # 42     ecut=    60.00 Ry     beta= 0.70
     Davidson diagonalization with overlap
     c_bands:  1 eigenvalues not converged
     ethr =  6.04E-08,  avg # of iterations = 15.5

     total cpu time spent up to now is      657.6 secs

     total energy              =   -1627.94462100 Ry
     Harris-Foulkes estimate   =   -1627.94462002 Ry
     estimated scf accuracy    <       0.00114726 Ry

     total magnetization       =     2.00 Bohr mag/cell
     absolute magnetization    =     2.20 Bohr mag/cell

     iteration # 43     ecut=    60.00 Ry     beta= 0.70
     Davidson diagonalization with overlap
     c_bands:  1 eigenvalues not converged
     ethr =  6.04E-08,  avg # of iterations = 14.5

     total cpu time spent up to now is      674.3 secs

     total energy              =   -1627.94463648 Ry
     Harris-Foulkes estimate   =   -1627.94462948 Ry
     estimated scf accuracy    <       0.01612689 Ry

     total magnetization       =     2.00 Bohr mag/cell
     absolute magnetization    =     2.19 Bohr mag/cell

     iteration # 44     ecut=    60.00 Ry     beta= 0.70
     Davidson diagonalization with overlap
     ethr =  6.04E-08,  avg # of iterations = 15.5

     total cpu time spent up to now is      692.2 secs

     total energy              =   -1627.94468006 Ry
     Harris-Foulkes estimate   =   -1627.94467312 Ry
     estimated scf accuracy    <       0.07962208 Ry

     total magnetization       =     2.00 Bohr mag/cell
     absolute magnetization    =     2.18 Bohr mag/cell

     iteration # 45     ecut=    60.00 Ry     beta= 0.70
     Davidson diagonalization with overlap
     ethr =  6.04E-08,  avg # of iterations =  1.0

     total cpu time spent up to now is      704.0 secs

     total energy              =   -1627.94466330 Ry
     Harris-Foulkes estimate   =   -1627.94468080 Ry
     estimated scf accuracy    <       0.08806981 Ry

     total magnetization       =     2.00 Bohr mag/cell
     absolute magnetization    =     2.18 Bohr mag/cell

     iteration # 46     ecut=    60.00 Ry     beta= 0.70
     Davidson diagonalization with overlap
     ethr =  6.04E-08,  avg # of iterations =  1.0

     total cpu time spent up to now is      716.1 secs

     total energy              =   -1627.94463682 Ry
     Harris-Foulkes estimate   =   -1627.94466480 Ry
     estimated scf accuracy    <       0.06920659 Ry

     total magnetization       =     2.00 Bohr mag/cell
     absolute magnetization    =     2.18 Bohr mag/cell

     iteration # 47     ecut=    60.00 Ry     beta= 0.70
     Davidson diagonalization with overlap
     ethr =  6.04E-08,  avg # of iterations =  3.5

     total cpu time spent up to now is      729.2 secs

     total energy              =   -1627.94465902 Ry
     Harris-Foulkes estimate   =   -1627.94464099 Ry
     estimated scf accuracy    <       0.03594205 Ry

     total magnetization       =     2.00 Bohr mag/cell
     absolute magnetization    =     2.18 Bohr mag/cell

     iteration # 48     ecut=    60.00 Ry     beta= 0.70
     Davidson diagonalization with overlap
     ethr =  6.04E-08,  avg # of iterations =  3.5

     total cpu time spent up to now is      742.2 secs

     total energy              =   -1627.94461782 Ry
     Harris-Foulkes estimate   =   -1627.94466442 Ry
     estimated scf accuracy    <       0.07014917 Ry

     total magnetization       =     2.00 Bohr mag/cell
     absolute magnetization    =     2.18 Bohr mag/cell

     iteration # 49     ecut=    60.00 Ry     beta= 0.70
     Davidson diagonalization with overlap
     ethr =  6.04E-08,  avg # of iterations =  8.5

     total cpu time spent up to now is      757.2 secs

     total energy              =   -1627.94460884 Ry
     Harris-Foulkes estimate   =   -1627.94463216 Ry
     estimated scf accuracy    <       0.02301704 Ry

     total magnetization       =     2.00 Bohr mag/cell
     absolute magnetization    =     2.18 Bohr mag/cell

     iteration # 50     ecut=    60.00 Ry     beta= 0.70
     Davidson diagonalization with overlap
     ethr =  6.04E-08,  avg # of iterations =  7.5

     total cpu time spent up to now is      771.7 secs

     total energy              =   -1627.94461881 Ry
     Harris-Foulkes estimate   =   -1627.94461848 Ry
     estimated scf accuracy    <       0.00344648 Ry

     total magnetization       =     2.00 Bohr mag/cell
     absolute magnetization    =     2.20 Bohr mag/cell

     iteration # 51     ecut=    60.00 Ry     beta= 0.70
     Davidson diagonalization with overlap
     ethr =  6.04E-08,  avg # of iterations =  1.0

     total cpu time spent up to now is      783.6 secs

     total energy              =   -1627.94461431 Ry
     Harris-Foulkes estimate   =   -1627.94461927 Ry
     estimated scf accuracy    <       0.00416771 Ry

     total magnetization       =     2.00 Bohr mag/cell
     absolute magnetization    =     2.20 Bohr mag/cell

     iteration # 52     ecut=    60.00 Ry     beta= 0.70
     Davidson diagonalization with overlap
     ethr =  6.04E-08,  avg # of iterations =  3.0

     total cpu time spent up to now is      796.4 secs

     total energy              =   -1627.94461452 Ry
     Harris-Foulkes estimate   =   -1627.94461620 Ry
     estimated scf accuracy    <       0.00060832 Ry

     total magnetization       =     2.00 Bohr mag/cell
     absolute magnetization    =     2.21 Bohr mag/cell

     iteration # 53     ecut=    60.00 Ry     beta= 0.70
     Davidson diagonalization with overlap
     ethr =  6.04E-08,  avg # of iterations =  1.0

     total cpu time spent up to now is      808.2 secs

     total energy              =   -1627.94461579 Ry
     Harris-Foulkes estimate   =   -1627.94461582 Ry
     estimated scf accuracy    <       0.00014183 Ry

     total magnetization       =     2.00 Bohr mag/cell
     absolute magnetization    =     2.22 Bohr mag/cell

     iteration # 54     ecut=    60.00 Ry     beta= 0.70
     Davidson diagonalization with overlap
     ethr =  2.79E-08,  avg # of iterations =  6.5

     total cpu time spent up to now is      821.9 secs

     total energy              =   -1627.94461557 Ry
     Harris-Foulkes estimate   =   -1627.94461584 Ry
     estimated scf accuracy    <       0.00009098 Ry

     total magnetization       =     2.00 Bohr mag/cell
     absolute magnetization    =     2.22 Bohr mag/cell

     iteration # 55     ecut=    60.00 Ry     beta= 0.70
     Davidson diagonalization with overlap
     ethr =  1.79E-08,  avg # of iterations =  3.0

     total cpu time spent up to now is      834.8 secs

     total energy              =   -1627.94461565 Ry
     Harris-Foulkes estimate   =   -1627.94461574 Ry
     estimated scf accuracy    <       0.00000431 Ry

     total magnetization       =     2.00 Bohr mag/cell
     absolute magnetization    =     2.21 Bohr mag/cell

     iteration # 56     ecut=    60.00 Ry     beta= 0.70
     Davidson diagonalization with overlap
     ethr =  8.49E-10,  avg # of iterations = 16.0

     total cpu time spent up to now is      853.4 secs

     total energy              =   -1627.94461570 Ry
     Harris-Foulkes estimate   =   -1627.94461578 Ry
     estimated scf accuracy    <       0.00009059 Ry

     total magnetization       =     2.00 Bohr mag/cell
     absolute magnetization    =     2.21 Bohr mag/cell

     iteration # 57     ecut=    60.00 Ry     beta= 0.70
     Davidson diagonalization with overlap
     ethr =  8.49E-10,  avg # of iterations =  4.5

     total cpu time spent up to now is      867.0 secs

     total energy              =   -1627.94461543 Ry
     Harris-Foulkes estimate   =   -1627.94461571 Ry
     estimated scf accuracy    <       0.00005014 Ry

     total magnetization       =     2.00 Bohr mag/cell
     absolute magnetization    =     2.21 Bohr mag/cell

     iteration # 58     ecut=    60.00 Ry     beta= 0.70
     Davidson diagonalization with overlap
     ethr =  8.49E-10,  avg # of iterations = 11.0

     total cpu time spent up to now is      883.2 secs

     total energy              =   -1627.94461571 Ry
     Harris-Foulkes estimate   =   -1627.94461563 Ry
     estimated scf accuracy    <       0.00000953 Ry

     total magnetization       =     2.00 Bohr mag/cell
     absolute magnetization    =     2.22 Bohr mag/cell

     iteration # 59     ecut=    60.00 Ry     beta= 0.70
     Davidson diagonalization with overlap
     ethr =  8.49E-10,  avg # of iterations =  8.0

     total cpu time spent up to now is      897.7 secs

     total energy              =   -1627.94461585 Ry
     Harris-Foulkes estimate   =   -1627.94461587 Ry
     estimated scf accuracy    <       0.00019679 Ry

     total magnetization       =     2.00 Bohr mag/cell
     absolute magnetization    =     2.22 Bohr mag/cell

     iteration # 60     ecut=    60.00 Ry     beta= 0.70
     Davidson diagonalization with overlap
     ethr =  8.49E-10,  avg # of iterations =  2.5

     total cpu time spent up to now is      910.0 secs

     total energy              =   -1627.94461598 Ry
     Harris-Foulkes estimate   =   -1627.94461586 Ry
     estimated scf accuracy    <       0.00015635 Ry

     total magnetization       =     2.00 Bohr mag/cell
     absolute magnetization    =     2.22 Bohr mag/cell

     iteration # 61     ecut=    60.00 Ry     beta= 0.70
     Davidson diagonalization with overlap
     ethr =  8.49E-10,  avg # of iterations = 13.5

     total cpu time spent up to now is      927.4 secs

     total energy              =   -1627.94461610 Ry
     Harris-Foulkes estimate   =   -1627.94461616 Ry
     estimated scf accuracy    <       0.00017102 Ry

     total magnetization       =     2.00 Bohr mag/cell
     absolute magnetization    =     2.22 Bohr mag/cell

     iteration # 62     ecut=    60.00 Ry     beta= 0.70
     Davidson diagonalization with overlap
     ethr =  8.49E-10,  avg # of iterations = 10.0

     total cpu time spent up to now is      943.2 secs

     total energy              =   -1627.94461617 Ry
     Harris-Foulkes estimate   =   -1627.94461625 Ry
     estimated scf accuracy    <       0.00004450 Ry

     total magnetization       =     2.00 Bohr mag/cell
     absolute magnetization    =     2.22 Bohr mag/cell

     iteration # 63     ecut=    60.00 Ry     beta= 0.70
     Davidson diagonalization with overlap
     ethr =  8.49E-10,  avg # of iterations = 13.5

     total cpu time spent up to now is      960.8 secs

     total energy              =   -1627.94461671 Ry
     Harris-Foulkes estimate   =   -1627.94461665 Ry
     estimated scf accuracy    <       0.00002234 Ry

     total magnetization       =     2.00 Bohr mag/cell
     absolute magnetization    =     2.22 Bohr mag/cell

     iteration # 64     ecut=    60.00 Ry     beta= 0.70
     Davidson diagonalization with overlap
     ethr =  8.49E-10,  avg # of iterations =  3.0

     total cpu time spent up to now is      973.3 secs

     total energy              =   -1627.94461672 Ry
     Harris-Foulkes estimate   =   -1627.94461675 Ry
     estimated scf accuracy    <       0.00009955 Ry

     total magnetization       =     2.00 Bohr mag/cell
     absolute magnetization    =     2.22 Bohr mag/cell

     iteration # 65     ecut=    60.00 Ry     beta= 0.70
     Davidson diagonalization with overlap
     ethr =  8.49E-10,  avg # of iterations =  8.5

     total cpu time spent up to now is      988.5 secs

     total energy              =   -1627.94461693 Ry
     Harris-Foulkes estimate   =   -1627.94461686 Ry
     estimated scf accuracy    <       0.00001765 Ry

     total magnetization       =     2.00 Bohr mag/cell
     absolute magnetization    =     2.22 Bohr mag/cell

     iteration # 66     ecut=    60.00 Ry     beta= 0.70
     Davidson diagonalization with overlap
     ethr =  8.49E-10,  avg # of iterations = 11.5

     total cpu time spent up to now is     1005.7 secs

     total energy              =   -1627.94461690 Ry
     Harris-Foulkes estimate   =   -1627.94461712 Ry
     estimated scf accuracy    <       0.00004546 Ry

     total magnetization       =     2.00 Bohr mag/cell
     absolute magnetization    =     2.22 Bohr mag/cell

     iteration # 67     ecut=    60.00 Ry     beta= 0.70
     Davidson diagonalization with overlap
     ethr =  8.49E-10,  avg # of iterations = 12.5

     total cpu time spent up to now is     1023.0 secs

     total energy              =   -1627.94461665 Ry
     Harris-Foulkes estimate   =   -1627.94461744 Ry
     estimated scf accuracy    <       0.00007693 Ry

     total magnetization       =     2.00 Bohr mag/cell
     absolute magnetization    =     2.21 Bohr mag/cell

     iteration # 68     ecut=    60.00 Ry     beta= 0.70
     Davidson diagonalization with overlap
     ethr =  8.49E-10,  avg # of iterations = 16.0

     total cpu time spent up to now is     1042.7 secs

     total energy              =   -1627.94461743 Ry
     Harris-Foulkes estimate   =   -1627.94461816 Ry
     estimated scf accuracy    <       0.00026233 Ry

     total magnetization       =     2.00 Bohr mag/cell
     absolute magnetization    =     2.21 Bohr mag/cell

     iteration # 69     ecut=    60.00 Ry     beta= 0.70
     Davidson diagonalization with overlap
     ethr =  8.49E-10,  avg # of iterations =  6.0

     total cpu time spent up to now is     1056.3 secs

     total energy              =   -1627.94461777 Ry
     Harris-Foulkes estimate   =   -1627.94461794 Ry
     estimated scf accuracy    <       0.00003147 Ry

     total magnetization       =     2.00 Bohr mag/cell
     absolute magnetization    =     2.22 Bohr mag/cell

     iteration # 70     ecut=    60.00 Ry     beta= 0.70
     Davidson diagonalization with overlap
     ethr =  8.49E-10,  avg # of iterations = 12.5

     total cpu time spent up to now is     1073.7 secs

     total energy              =   -1627.94461743 Ry
     Harris-Foulkes estimate   =   -1627.94461817 Ry
     estimated scf accuracy    <       0.00001094 Ry

     total magnetization       =     2.00 Bohr mag/cell
     absolute magnetization    =     2.22 Bohr mag/cell

     iteration # 71     ecut=    60.00 Ry     beta= 0.70
     Davidson diagonalization with overlap
     ethr =  8.49E-10,  avg # of iterations = 15.5

     total cpu time spent up to now is     1093.0 secs

     total energy              =   -1627.94461840 Ry
     Harris-Foulkes estimate   =   -1627.94461850 Ry
     estimated scf accuracy    <       0.00001155 Ry

     total magnetization       =     2.00 Bohr mag/cell
     absolute magnetization    =     2.21 Bohr mag/cell

     iteration # 72     ecut=    60.00 Ry     beta= 0.70
     Davidson diagonalization with overlap
     ethr =  8.49E-10,  avg # of iterations = 12.0

     total cpu time spent up to now is     1109.8 secs

     total energy              =   -1627.94461821 Ry
     Harris-Foulkes estimate   =   -1627.94461861 Ry
     estimated scf accuracy    <       0.00000071 Ry

     total magnetization       =     2.00 Bohr mag/cell
     absolute magnetization    =     2.21 Bohr mag/cell

     iteration # 73     ecut=    60.00 Ry     beta= 0.70
     Davidson diagonalization with overlap
     ethr =  1.39E-10,  avg # of iterations = 17.0

     total cpu time spent up to now is     1131.8 secs

     total energy              =   -1627.94461874 Ry
     Harris-Foulkes estimate   =   -1627.94461879 Ry
     estimated scf accuracy    <       0.00000166 Ry

     total magnetization       =     2.00 Bohr mag/cell
     absolute magnetization    =     2.21 Bohr mag/cell

     iteration # 74     ecut=    60.00 Ry     beta= 0.70
     Davidson diagonalization with overlap
     ethr =  1.39E-10,  avg # of iterations = 12.5

     total cpu time spent up to now is     1148.6 secs

     total energy              =   -1627.94461868 Ry
     Harris-Foulkes estimate   =   -1627.94461881 Ry
     estimated scf accuracy    <       0.00002204 Ry

     total magnetization       =     2.00 Bohr mag/cell
     absolute magnetization    =     2.22 Bohr mag/cell

     iteration # 75     ecut=    60.00 Ry     beta= 0.70
     Davidson diagonalization with overlap
     ethr =  1.39E-10,  avg # of iterations = 12.5

     total cpu time spent up to now is     1166.0 secs

     total energy              =   -1627.94461871 Ry
     Harris-Foulkes estimate   =   -1627.94461875 Ry
     estimated scf accuracy    <       0.00000672 Ry

     total magnetization       =     2.00 Bohr mag/cell
     absolute magnetization    =     2.21 Bohr mag/cell

     iteration # 76     ecut=    60.00 Ry     beta= 0.70
     Davidson diagonalization with overlap
     ethr =  1.39E-10,  avg # of iterations =  3.5

     total cpu time spent up to now is     1178.8 secs

     total energy              =   -1627.94461816 Ry
     Harris-Foulkes estimate   =   -1627.94461873 Ry
     estimated scf accuracy    <       0.00000297 Ry

     total magnetization       =     2.00 Bohr mag/cell
     absolute magnetization    =     2.21 Bohr mag/cell

     iteration # 77     ecut=    60.00 Ry     beta= 0.70
     Davidson diagonalization with overlap
     ethr =  1.39E-10,  avg # of iterations = 15.5

     total cpu time spent up to now is     1200.3 secs

     total energy              =   -1627.94461840 Ry
     Harris-Foulkes estimate   =   -1627.94461887 Ry
     estimated scf accuracy    <       0.00000333 Ry

     total magnetization       =     2.00 Bohr mag/cell
     absolute magnetization    =     2.21 Bohr mag/cell

     iteration # 78     ecut=    60.00 Ry     beta= 0.70
     Davidson diagonalization with overlap
     ethr =  1.39E-10,  avg # of iterations = 16.0

     total cpu time spent up to now is     1221.4 secs

     total energy              =   -1627.94461882 Ry
     Harris-Foulkes estimate   =   -1627.94461892 Ry
     estimated scf accuracy    <       0.00000009 Ry

     total magnetization       =     2.00 Bohr mag/cell
     absolute magnetization    =     2.21 Bohr mag/cell

     iteration # 79     ecut=    60.00 Ry     beta= 0.70
     Davidson diagonalization with overlap
     ethr =  1.87E-11,  avg # of iterations = 16.5

     total cpu time spent up to now is     1242.9 secs

     total energy              =   -1627.94461878 Ry
     Harris-Foulkes estimate   =   -1627.94461892 Ry
     estimated scf accuracy    <       0.00001298 Ry

     total magnetization       =     2.00 Bohr mag/cell
     absolute magnetization    =     2.21 Bohr mag/cell

     iteration # 80     ecut=    60.00 Ry     beta= 0.70
     Davidson diagonalization with overlap
     ethr =  1.87E-11,  avg # of iterations = 16.0

     total cpu time spent up to now is     1263.1 secs

     total energy              =   -1627.94461889 Ry
     Harris-Foulkes estimate   =   -1627.94461892 Ry
     estimated scf accuracy    <       0.00003176 Ry

     total magnetization       =     2.00 Bohr mag/cell
     absolute magnetization    =     2.22 Bohr mag/cell

     iteration # 81     ecut=    60.00 Ry     beta= 0.70
     Davidson diagonalization with overlap
     ethr =  1.87E-11,  avg # of iterations = 15.0

     total cpu time spent up to now is     1282.4 secs

     total energy              =   -1627.94461889 Ry
     Harris-Foulkes estimate   =   -1627.94461892 Ry
     estimated scf accuracy    <       0.00002247 Ry

     total magnetization       =     2.00 Bohr mag/cell
     absolute magnetization    =     2.22 Bohr mag/cell

     iteration # 82     ecut=    60.00 Ry     beta= 0.70
     Davidson diagonalization with overlap
     ethr =  1.87E-11,  avg # of iterations =  7.5

     total cpu time spent up to now is     1297.1 secs

     total energy              =   -1627.94461872 Ry
     Harris-Foulkes estimate   =   -1627.94461890 Ry
     estimated scf accuracy    <       0.00000996 Ry

     total magnetization       =     2.00 Bohr mag/cell
     absolute magnetization    =     2.21 Bohr mag/cell

     iteration # 83     ecut=    60.00 Ry     beta= 0.70
     Davidson diagonalization with overlap
     ethr =  1.87E-11,  avg # of iterations = 17.0

     total cpu time spent up to now is     1320.9 secs

     total energy              =   -1627.94461889 Ry
     Harris-Foulkes estimate   =   -1627.94461890 Ry
     estimated scf accuracy    <       0.00000023 Ry

     total magnetization       =     2.00 Bohr mag/cell
     absolute magnetization    =     2.21 Bohr mag/cell

     iteration # 84     ecut=    60.00 Ry     beta= 0.70
     Davidson diagonalization with overlap
     ethr =  1.87E-11,  avg # of iterations = 11.0

     total cpu time spent up to now is     1337.1 secs

     total energy              =   -1627.94461889 Ry
     Harris-Foulkes estimate   =   -1627.94461890 Ry
     estimated scf accuracy    <       0.00000020 Ry

     total magnetization       =     2.00 Bohr mag/cell
     absolute magnetization    =     2.21 Bohr mag/cell

     iteration # 85     ecut=    60.00 Ry     beta= 0.70
     Davidson diagonalization with overlap
     ethr =  1.87E-11,  avg # of iterations = 12.0

     total cpu time spent up to now is     1354.0 secs

     total energy              =   -1627.94461889 Ry
     Harris-Foulkes estimate   =   -1627.94461890 Ry
     estimated scf accuracy    <       0.00000027 Ry

     total magnetization       =     2.00 Bohr mag/cell
     absolute magnetization    =     2.21 Bohr mag/cell

     iteration # 86     ecut=    60.00 Ry     beta= 0.70
     Davidson diagonalization with overlap
     ethr =  1.87E-11,  avg # of iterations = 11.0

     total cpu time spent up to now is     1370.0 secs

     total energy              =   -1627.94461890 Ry
     Harris-Foulkes estimate   =   -1627.94461890 Ry
     estimated scf accuracy    <       0.00000004 Ry

     total magnetization       =     2.00 Bohr mag/cell
     absolute magnetization    =     2.21 Bohr mag/cell

     iteration # 87     ecut=    60.00 Ry     beta= 0.70
     Davidson diagonalization with overlap
     ethr =  7.07E-12,  avg # of iterations = 14.0

     total cpu time spent up to now is     1387.6 secs

     total energy              =   -1627.94461890 Ry
     Harris-Foulkes estimate   =   -1627.94461890 Ry
     estimated scf accuracy    <       0.00000002 Ry

     total magnetization       =     2.00 Bohr mag/cell
     absolute magnetization    =     2.21 Bohr mag/cell

     iteration # 88     ecut=    60.00 Ry     beta= 0.70
     Davidson diagonalization with overlap
     ethr =  4.08E-12,  avg # of iterations =  6.0

     total cpu time spent up to now is     1401.8 secs

     total energy              =   -1627.94461890 Ry
     Harris-Foulkes estimate   =   -1627.94461890 Ry
     estimated scf accuracy    <       0.00000003 Ry

     total magnetization       =     2.00 Bohr mag/cell
     absolute magnetization    =     2.21 Bohr mag/cell

     iteration # 89     ecut=    60.00 Ry     beta= 0.70
     Davidson diagonalization with overlap
     ethr =  4.08E-12,  avg # of iterations =  6.5

     total cpu time spent up to now is     1416.4 secs

     total energy              =   -1627.94461890 Ry
     Harris-Foulkes estimate   =   -1627.94461890 Ry
     estimated scf accuracy    <       0.00000003 Ry

     total magnetization       =     2.00 Bohr mag/cell
     absolute magnetization    =     2.21 Bohr mag/cell

     iteration # 90     ecut=    60.00 Ry     beta= 0.70
     Davidson diagonalization with overlap
     ethr =  4.08E-12,  avg # of iterations =  1.0

     total cpu time spent up to now is     1428.2 secs

     total energy              =   -1627.94461890 Ry
     Harris-Foulkes estimate   =   -1627.94461890 Ry
     estimated scf accuracy    <       0.00000002 Ry

     total magnetization       =     2.00 Bohr mag/cell
     absolute magnetization    =     2.21 Bohr mag/cell

     iteration # 91     ecut=    60.00 Ry     beta= 0.70
     Davidson diagonalization with overlap
     ethr =  4.08E-12,  avg # of iterations = 10.5

     total cpu time spent up to now is     1443.9 secs

     total energy              =   -1627.94461889 Ry
     Harris-Foulkes estimate   =   -1627.94461890 Ry
     estimated scf accuracy    <       0.00000002 Ry

     total magnetization       =     2.00 Bohr mag/cell
     absolute magnetization    =     2.21 Bohr mag/cell

     iteration # 92     ecut=    60.00 Ry     beta= 0.70
     Davidson diagonalization with overlap
     ethr =  3.20E-12,  avg # of iterations = 15.0
 
     Magnetic moment per site:
     atom:    1    charge:    2.8650    magn:   -0.0001    constr:    0.0000
     atom:    2    charge:    2.8651    magn:    0.0001    constr:    0.0000
     atom:    3    charge:    2.8651    magn:   -0.0001    constr:    0.0000
     atom:    4    charge:    2.8651    magn:   -0.0001    constr:    0.0000
     atom:    5    charge:    2.8650    magn:   -0.0002    constr:    0.0000
     atom:    6    charge:    2.8650    magn:   -0.0001    constr:    0.0000
     atom:    7    charge:    2.8650    magn:   -0.0002    constr:    0.0000
     atom:    8    charge:    2.8651    magn:   -0.0000    constr:    0.0000
     atom:    9    charge:    2.8650    magn:   -0.0002    constr:    0.0000
     atom:   10    charge:    2.8650    magn:   -0.0000    constr:    0.0000
     atom:   11    charge:    2.8650    magn:   -0.0001    constr:    0.0000
     atom:   12    charge:    2.8650    magn:   -0.0001    constr:    0.0000
     atom:   13    charge:    2.8650    magn:   -0.0002    constr:    0.0000
     atom:   14    charge:    2.8650    magn:   -0.0002    constr:    0.0000
     atom:   15    charge:    2.8650    magn:   -0.0002    constr:    0.0000
     atom:   16    charge:    2.8650    magn:   -0.0002    constr:    0.0000
     atom:   17    charge:    2.8649    magn:   -0.0006    constr:    0.0000
     atom:   18    charge:    2.8646    magn:   -0.0016    constr:    0.0000
     atom:   19    charge:    2.8648    magn:    0.0005    constr:    0.0000
     atom:   20    charge:    2.8646    magn:   -0.0012    constr:    0.0000
     atom:   21    charge:    2.8648    magn:   -0.0005    constr:    0.0000
     atom:   22    charge:    2.8650    magn:   -0.0001    constr:    0.0000
     atom:   23    charge:    2.8650    magn:   -0.0002    constr:    0.0000
     atom:   24    charge:    2.8650    magn:   -0.0001    constr:    0.0000
     atom:   25    charge:    2.8649    magn:   -0.0006    constr:    0.0000
     atom:   26    charge:    2.8640    magn:   -0.0023    constr:    0.0000
     atom:   27    charge:    2.8560    magn:   -0.0080    constr:    0.0000
     atom:   28    charge:    2.8564    magn:   -0.0048    constr:    0.0000
     atom:   29    charge:    2.8639    magn:   -0.0020    constr:    0.0000
     atom:   30    charge:    2.8648    magn:   -0.0005    constr:    0.0000
     atom:   31    charge:    2.8650    magn:   -0.0002    constr:    0.0000
     atom:   32    charge:    2.8650    magn:   -0.0002    constr:    0.0000
     atom:   33    charge:    2.8651    magn:   -0.0002    constr:    0.0000
     atom:   34    charge:    2.8647    magn:   -0.0014    constr:    0.0000
     atom:   35    charge:    2.8563    magn:   -0.0059    constr:    0.0000
     atom:   36    charge:    2.8564    magn:   -0.0048    constr:    0.0000
     atom:   37    charge:    2.8646    magn:   -0.0012    constr:    0.0000
     atom:   38    charge:    2.8650    magn:   -0.0001    constr:    0.0000
     atom:   39    charge:    2.8651    magn:   -0.0001    constr:    0.0000
     atom:   40    charge:    2.8651    magn:   -0.0001    constr:    0.0000
     atom:   41    charge:    2.8651    magn:   -0.0000    constr:    0.0000
     atom:   42    charge:    2.8650    magn:    0.0002    constr:    0.0000
     atom:   43    charge:    2.8563    magn:   -0.0059    constr:    0.0000
     atom:   44    charge:    2.8560    magn:   -0.0080    constr:    0.0000
     atom:   45    charge:    2.8648    magn:    0.0005    constr:    0.0000
     atom:   46    charge:    2.8650    magn:   -0.0001    constr:    0.0000
     atom:   47    charge:    2.8651    magn:   -0.0001    constr:    0.0000
     atom:   48    charge:    2.8651    magn:   -0.0000    constr:    0.0000
     atom:   49    charge:    2.8651    magn:    0.0001    constr:    0.0000
     atom:   50    charge:    2.8651    magn:   -0.0000    constr:    0.0000
     atom:   51    charge:    2.8647    magn:   -0.0014    constr:    0.0000
     atom:   52    charge:    2.8640    magn:   -0.0023    constr:    0.0000
     atom:   53    charge:    2.8646    magn:   -0.0016    constr:    0.0000
     atom:   54    charge:    2.8650    magn:   -0.0000    constr:    0.0000
     atom:   55    charge:    2.8651    magn:    0.0001    constr:    0.0000
     atom:   56    charge:    2.8650    magn:   -0.0000    constr:    0.0000
     atom:   57    charge:    2.8651    magn:   -0.0000    constr:    0.0000
     atom:   58    charge:    2.8651    magn:   -0.0001    constr:    0.0000
     atom:   59    charge:    2.8651    magn:   -0.0002    constr:    0.0000
     atom:   60    charge:    2.8649    magn:   -0.0006    constr:    0.0000
     atom:   61    charge:    2.8649    magn:   -0.0006    constr:    0.0000
     atom:   62    charge:    2.8650    magn:   -0.0002    constr:    0.0000
     atom:   63    charge:    2.8650    magn:   -0.0001    constr:    0.0000
     atom:   64    charge:    0.8830    magn:    0.0000    constr:    0.0000
     atom:   65    charge:    0.8830    magn:    0.0001    constr:    0.0000
     atom:   66    charge:    0.8830    magn:    0.0001    constr:    0.0000
     atom:   67    charge:    0.8830    magn:    0.0000    constr:    0.0000
     atom:   68    charge:    0.8830    magn:    0.0000    constr:    0.0000
     atom:   69    charge:    0.8830    magn:    0.0002    constr:    0.0000
     atom:   70    charge:    0.8830    magn:    0.0002    constr:    0.0000
     atom:   71    charge:    0.8830    magn:    0.0000    constr:    0.0000
     atom:   72    charge:    0.8831    magn:    0.0003    constr:    0.0000
     atom:   73    charge:    0.8829    magn:   -0.0000    constr:    0.0000
     atom:   74    charge:    0.8830    magn:    0.0006    constr:    0.0000
     atom:   75    charge:    0.8828    magn:    0.0001    constr:    0.0000
     atom:   76    charge:    0.8830    magn:    0.0003    constr:    0.0000
     atom:   77    charge:    0.8830    magn:    0.0002    constr:    0.0000
     atom:   78    charge:    0.8831    magn:    0.0006    constr:    0.0000
     atom:   79    charge:    0.8830    magn:    0.0002    constr:    0.0000
     atom:   80    charge:    0.8832    magn:    0.0009    constr:    0.0000
     atom:   81    charge:    0.8835    magn:    0.0028    constr:    0.0000
     atom:   82    charge:    0.8816    magn:    0.0021    constr:    0.0000
     atom:   83    charge:    0.8818    magn:    0.0028    constr:    0.0000
     atom:   84    charge:    0.8834    magn:    0.0028    constr:    0.0000
     atom:   85    charge:    0.8831    magn:    0.0009    constr:    0.0000
     atom:   86    charge:    0.8830    magn:    0.0002    constr:    0.0000
     atom:   87    charge:    0.8830    magn:    0.0002    constr:    0.0000
     atom:   88    charge:    0.8832    magn:    0.0003    constr:    0.0000
     atom:   89    charge:    0.8836    magn:    0.0029    constr:    0.0000
     atom:   90    charge:    0.8854    magn:    0.0185    constr:    0.0000
     atom:   91    charge:    0.7851    magn:    0.0528    constr:    0.0000
     atom:   92    charge:    0.8849    magn:    0.0181    constr:    0.0000
     atom:   93    charge:    0.8834    magn:    0.0028    constr:    0.0000
     atom:   94    charge:    0.8830    magn:    0.0003    constr:    0.0000
     atom:   95    charge:    0.8830    magn:    0.0000    constr:    0.0000
     atom:   96    charge:    0.8831    magn:    0.0000    constr:    0.0000
     atom:   97    charge:    0.8831    magn:    0.0001    constr:    0.0000
     atom:   98    charge:    0.8824    magn:    0.0037    constr:    0.0000
     atom:   99    charge:    0.7955    magn:    0.0924    constr:    0.0000
     atom:  100    charge:    0.7850    magn:    0.0528    constr:    0.0000
     atom:  101    charge:    0.8818    magn:    0.0028    constr:    0.0000
     atom:  102    charge:    0.8828    magn:    0.0001    constr:    0.0000
     atom:  103    charge:    0.8830    magn:    0.0000    constr:    0.0000
     atom:  104    charge:    0.8830    magn:    0.0000    constr:    0.0000
     atom:  105    charge:    0.8831    magn:    0.0001    constr:    0.0000
[...]
     atom  117 type  1   force =     0.00000000    0.00000000    0.00000000
     atom  118 type  1   force =     0.00000000    0.00000000    0.00000000
     atom  119 type  1   force =     0.00000000    0.00000000    0.00000000
     atom  120 type  1   force =     0.00000000    0.00000000    0.00000000
     atom  121 type  1   force =     0.00000000    0.00000000    0.00000000
     atom  122 type  1   force =     0.00000000    0.00000000    0.00000000
     atom  123 type  1   force =     0.00000000    0.00000000    0.00000000
     atom  124 type  1   force =     0.00000000    0.00000000    0.00000000
     atom  125 type  1   force =     0.00000000    0.00000000    0.00000000
     atom  126 type  1   force =     0.00000000    0.00000000    0.00000000
     atom  127 type  1   force =     0.00000000    0.00000000    0.00000000
     The SCF correction term to forces
     atom    1 type  2   force =     0.00000217   -0.00000030    0.00000000
     atom    2 type  2   force =     0.00000099    0.00000039   -0.00000000
     atom    3 type  2   force =    -0.00000060    0.00000077    0.00000000
     atom    4 type  2   force =     0.00000068   -0.00000024    0.00000000
     atom    5 type  2   force =     0.00000180    0.00000046   -0.00000000
     atom    6 type  2   force =     0.00000035    0.00000051   -0.00000000
     atom    7 type  2   force =    -0.00000125    0.00000132    0.00000000
     atom    8 type  2   force =     0.00000041   -0.00000024   -0.00000001
     atom    9 type  2   force =    -0.00000047   -0.00000031   -0.00000000
     atom   10 type  2   force =     0.00000048   -0.00000108    0.00000000
     atom   11 type  2   force =    -0.00000050   -0.00000079   -0.00000000
     atom   12 type  2   force =    -0.00000181   -0.00000071   -0.00000000
     atom   13 type  2   force =    -0.00000113    0.00000140    0.00000000
     atom   14 type  2   force =     0.00000195    0.00000080   -0.00000000
     atom   15 type  2   force =     0.00000119   -0.00000069    0.00000000
     atom   16 type  2   force =    -0.00000177    0.00000042    0.00000000
     atom   17 type  2   force =    -0.00000185    0.00000003   -0.00000000
     atom   18 type  2   force =    -0.00000030   -0.00000024   -0.00000000
     atom   19 type  2   force =     0.00000013   -0.00000200    0.00000000
     atom   20 type  2   force =    -0.00000105   -0.00000163   -0.00000000
     atom   21 type  2   force =    -0.00000246    0.00000065   -0.00000000
     atom   22 type  2   force =    -0.00000250    0.00000146   -0.00000000
     atom   23 type  2   force =     0.00000031   -0.00000210   -0.00000001
     atom   24 type  2   force =    -0.00000026   -0.00000056   -0.00000000
     atom   25 type  2   force =    -0.00000031   -0.00000058   -0.00000000
     atom   26 type  2   force =    -0.00000053    0.00000296   -0.00000000
     atom   27 type  2   force =     0.00000270   -0.00000335    0.00000000
     atom   28 type  2   force =    -0.00000303   -0.00000253    0.00000000
     atom   29 type  2   force =    -0.00000077    0.00000045   -0.00000000
     atom   30 type  2   force =    -0.00000180    0.00000181   -0.00000000
     atom   31 type  2   force =    -0.00000179    0.00000028   -0.00000000
     atom   32 type  2   force =     0.00000051   -0.00000179   -0.00000000
     atom   33 type  2   force =     0.00000117   -0.00000016   -0.00000001
     atom   34 type  2   force =     0.00000000    0.00000293   -0.00000001
     atom   35 type  2   force =     0.00000101    0.00000289   -0.00000001
     atom   36 type  2   force =     0.00000070    0.00000390    0.00000000
     atom   37 type  2   force =     0.00000090    0.00000170   -0.00000000
     atom   38 type  2   force =    -0.00000029    0.00000192   -0.00000000
     atom   39 type  2   force =     0.00000053   -0.00000047   -0.00000000
     atom   40 type  2   force =     0.00000019    0.00000024   -0.00000000
     atom   41 type  2   force =     0.00000071    0.00000017   -0.00000001
     atom   42 type  2   force =    -0.00000273    0.00000157   -0.00000000
     atom   43 type  2   force =    -0.00000200   -0.00000233    0.00000000
     atom   44 type  2   force =     0.00000422   -0.00000066   -0.00000000
     atom   45 type  2   force =     0.00000179    0.00000088   -0.00000000
     atom   46 type  2   force =     0.00000044    0.00000083   -0.00000000
     atom   47 type  2   force =    -0.00000096    0.00000014   -0.00000000
     atom   48 type  2   force =    -0.00000167   -0.00000027   -0.00000000
     atom   49 type  2   force =    -0.00000078    0.00000046   -0.00000001
     atom   50 type  2   force =     0.00000022   -0.00000071   -0.00000000
     atom   51 type  2   force =    -0.00000253   -0.00000147   -0.00000000
     atom   52 type  2   force =    -0.00000282   -0.00000103   -0.00000000
     atom   53 type  2   force =     0.00000006    0.00000039   -0.00000000
     atom   54 type  2   force =     0.00000117    0.00000012    0.00000000
     atom   55 type  2   force =     0.00000015   -0.00000104   -0.00000000
     atom   56 type  2   force =     0.00000046   -0.00000027   -0.00000000
     atom   57 type  2   force =    -0.00000061    0.00000158   -0.00000000
     atom   58 type  2   force =    -0.00000011   -0.00000030    0.00000000
     atom   59 type  2   force =     0.00000071   -0.00000095    0.00000000
     atom   60 type  2   force =     0.00000034    0.00000057   -0.00000000
     atom   61 type  2   force =    -0.00000095    0.00000160    0.00000000
     atom   62 type  2   force =     0.00000004    0.00000055    0.00000000
     atom   63 type  2   force =     0.00000134   -0.00000173    0.00000000
     atom   64 type  1   force =     0.00000046   -0.00000018   -0.00000000
     atom   65 type  1   force =     0.00000065   -0.00000031    0.00000000
     atom   66 type  1   force =     0.00000056   -0.00000019    0.00000000
     atom   67 type  1   force =    -0.00000014    0.00000012    0.00000000
     atom   68 type  1   force =     0.00000000    0.00000031    0.00000000
     atom   69 type  1   force =     0.00000073    0.00000055   -0.00000000
     atom   70 type  1   force =    -0.00000025    0.00000012   -0.00000000
     atom   71 type  1   force =    -0.00000064    0.00000037   -0.00000000
     atom   72 type  1   force =    -0.00000088    0.00000014   -0.00000000
     atom   73 type  1   force =    -0.00000015   -0.00000068   -0.00000000
     atom   74 type  1   force =     0.00000004   -0.00000060    0.00000000
     atom   75 type  1   force =    -0.00000044   -0.00000089   -0.00000000
     atom   76 type  1   force =    -0.00000056    0.00000009    0.00000000
     atom   77 type  1   force =    -0.00000044    0.00000111   -0.00000000
     atom   78 type  1   force =     0.00000089   -0.00000051   -0.00000000
     atom   79 type  1   force =    -0.00000023    0.00000015   -0.00000000
     atom   80 type  1   force =    -0.00000067   -0.00000027   -0.00000000
     atom   81 type  1   force =    -0.00000066    0.00000020   -0.00000000
     atom   82 type  1   force =     0.00000007   -0.00000092    0.00000000
     atom   83 type  1   force =    -0.00000040   -0.00000130    0.00000000
     atom   84 type  1   force =    -0.00000069   -0.00000024   -0.00000000
     atom   85 type  1   force =    -0.00000115    0.00000067   -0.00000000
     atom   86 type  1   force =    -0.00000118   -0.00000017   -0.00000000
     atom   87 type  1   force =    -0.00000011   -0.00000090   -0.00000000
     atom   88 type  1   force =     0.00000044   -0.00000015   -0.00000000
     atom   89 type  1   force =    -0.00000027    0.00000096   -0.00000000
     atom   90 type  1   force =     0.00000159    0.00000092   -0.00000000
     atom   91 type  1   force =     0.00000148   -0.00000252   -0.00000000
     atom   92 type  1   force =    -0.00000069    0.00000041    0.00000000
     atom   93 type  1   force =    -0.00000014    0.00000072   -0.00000000
     atom   94 type  1   force =    -0.00000037    0.00000045   -0.00000000
     atom   95 type  1   force =    -0.00000028   -0.00000016   -0.00000000
     atom   96 type  1   force =    -0.00000024    0.00000003   -0.00000000
     atom   97 type  1   force =     0.00000015   -0.00000005   -0.00000000
     atom   98 type  1   force =    -0.00000113    0.00000228   -0.00000000
     atom   99 type  1   force =     0.00000270   -0.00000157   -0.00000000
     atom  100 type  1   force =     0.00000293   -0.00000001   -0.00000000
     atom  101 type  1   force =     0.00000093    0.00000099   -0.00000000
     atom  102 type  1   force =     0.00000056    0.00000082   -0.00000000
     atom  103 type  1   force =    -0.00000018    0.00000006   -0.00000000
     atom  104 type  1   force =    -0.00000017   -0.00000002   -0.00000000
     atom  105 type  1   force =     0.00000031    0.00000030   -0.00000000
     atom  106 type  1   force =    -0.00000076    0.00000044   -0.00000000
     atom  107 type  1   force =    -0.00000254   -0.00000017   -0.00000000
     atom  108 type  1   force =    -0.00000001   -0.00000182   -0.00000000
     atom  109 type  1   force =     0.00000082    0.00000040   -0.00000000
     atom  110 type  1   force =     0.00000054    0.00000026   -0.00000000
     atom  111 type  1   force =     0.00000045   -0.00000039   -0.00000000
     atom  112 type  1   force =     0.00000003   -0.00000074   -0.00000000
     atom  113 type  1   force =    -0.00000076    0.00000044   -0.00000000
     atom  114 type  1   force =    -0.00000010   -0.00000042   -0.00000000
     atom  115 type  1   force =     0.00000012   -0.00000011   -0.00000000
     atom  116 type  1   force =    -0.00000097   -0.00000025   -0.00000000
     atom  117 type  1   force =    -0.00000050    0.00000048   -0.00000000
     atom  118 type  1   force =     0.00000052    0.00000046    0.00000000
     atom  119 type  1   force =     0.00000059   -0.00000040    0.00000000
     atom  120 type  1   force =     0.00000109   -0.00000063    0.00000000
     atom  121 type  1   force =     0.00000065    0.00000034   -0.00000000
     atom  122 type  1   force =    -0.00000007    0.00000016    0.00000000
     atom  123 type  1   force =    -0.00000015    0.00000018    0.00000000
     atom  124 type  1   force =     0.00000034   -0.00000030   -0.00000000
     atom  125 type  1   force =    -0.00000011    0.00000072    0.00000000
     atom  126 type  1   force =    -0.00000056    0.00000069    0.00000000
     atom  127 type  1   force =     0.00000039   -0.00000031    0.00000000

     Total force =     0.002087     Total SCF correction =     0.000018

     bfgs converged in  22 scf cycles and  21 bfgs steps
     (criteria: energy <  1.0E-05 Ry, force <  1.0E-03 Ry/Bohr)

     End of BFGS Geometry Optimization

     Final energy   =   -1628.0028360609 Ry
Begin final coordinates

ATOMIC_POSITIONS (crystal)
N        0.042649861   0.083674194   0.000000000
N        0.042988092   0.208571109   0.000000000
N        0.042650786   0.333447644   0.000000000
N        0.041880242   0.458462721   0.000000000
N        0.040988933   0.583502441   0.000000000
N        0.040591031   0.708393730   0.000000000
N        0.040665426   0.833258140   0.000000000
N        0.041560373   0.958439641   0.000000000
N        0.168443223   0.085278166   0.000000000
N        0.168785657   0.209897451   0.000000000
N        0.168130831   0.334329243   0.000000000
N        0.166723908   0.459104148   0.000000000
N        0.165793048   0.584072408   0.000000000
N        0.165708704   0.709040323   0.000000000
N        0.165953057   0.834046957   0.000000000
N        0.166741874   0.959334588   0.000000000
N        0.292834299   0.085141327   0.000000000
N        0.295833250   0.212648449   0.000000000
N        0.294475122   0.335898487   0.000000000
N        0.291799893   0.459942603   0.000000000
N        0.290341098   0.584629226   0.000000000
N        0.290574977   0.709425023   0.000000000
N        0.290959677   0.834291310   0.000000000
N        0.291606270   0.959408983   0.000000000
N        0.417243173   0.084242438   0.000000000
N        0.418638616   0.210555482   0.000000000
N        0.425536009   0.342435061   0.000000000
N        0.417430652   0.461867431   0.000000000
N        0.414522215   0.585477785   0.000000000
N        0.415370774   0.709658902   0.000000000
N        0.415927592   0.834206966   0.000000000
N        0.416497559   0.959011081   0.000000000
N        0.542063902   0.082793632   0.000000000
N        0.542706207   0.207408417   0.000000000
N        0.544128401   0.332113460   0.000000000
N        0.538132569   0.582569348   0.000000000
N        0.540057397   0.708200107   0.000000000
N        0.540895852   0.833276106   0.000000000
N        0.541537279   0.958119772   0.000000000
N        0.667154163   0.082393512   0.000000000
N        0.667587901   0.207191418   0.000000000
N        0.668153542   0.331846458   0.000000000
N        0.667886540   0.455871599   0.000000000
N        0.657564939   0.574463991   0.000000000
N        0.664101513   0.705524878   0.000000000
N        0.665670757   0.831869183   0.000000000
N        0.666552356   0.957349228   0.000000000
N        0.792200050   0.082339840   0.000000000
N        0.792594294   0.207405692   0.000000000
N        0.792808568   0.332412099   0.000000000
N        0.792591569   0.457293793   0.000000000
N        0.789444504   0.581361384   0.000000000
N        0.787351537   0.704166750   0.000000000
N        0.790102535   0.831214357   0.000000000
N        0.791428877   0.957011922   0.000000000
N        0.917294475   0.082705511   0.000000000
N        0.917660146   0.207799936   0.000000000
N        0.917606474   0.332845837   0.000000000
N        0.917206354   0.457936098   0.000000000
N        0.915757548   0.582756827   0.000000000
N        0.914858659   0.707165701   0.000000000
N        0.914721820   0.831556791   0.000000000
N        0.916325792   0.957350153   0.000000000
B        0.084594470   0.042445341   0.000000000
B        0.085252519   0.167446826   0.000000000
B        0.084939491   0.292198189   0.000000000
B        0.083792203   0.416959427   0.000000000
B        0.082727063   0.541917921   0.000000000
B        0.082346141   0.666909351   0.000000000
B        0.082406695   0.791834910   0.000000000
B        0.083104776   0.916895210   0.000000000
B        0.209479944   0.043191255   0.000000000
B        0.211923560   0.169730177   0.000000000
B        0.211315395   0.293662904   0.000000000
B        0.209177520   0.417840347   0.000000000
B        0.207580524   0.542478597   0.000000000
B        0.207373795   0.667421035   0.000000000
B        0.207563377   0.792436609   0.000000000
B        0.208165076   0.917593291   0.000000000
B        0.333932914   0.043056292   0.000000000
B        0.335671681   0.169343584   0.000000000
B        0.340849360   0.298472787   0.000000000
B        0.335540076   0.419399904   0.000000000
B        0.332171860   0.543049409   0.000000000
B        0.332249979   0.667750021   0.000000000
B        0.332578965   0.792626191   0.000000000
B        0.333090649   0.917653845   0.000000000
B        0.458627689   0.042341246   0.000000000
B        0.459402105   0.167993111   0.000000000
B        0.461443444   0.295254301   0.000000000
B        0.473812682   0.433575536   0.000000000
B        0.456024201   0.543975799   0.000000000
B        0.456950591   0.667828140   0.000000000
B        0.457521403   0.792419462   0.000000000
B        0.458082079   0.917272923   0.000000000
B        0.583646323   0.041220379   0.000000000
B        0.584093478   0.166001067   0.000000000
B        0.584852334   0.290594334   0.000000000
B        0.585619270   0.414380730   0.000000000
B        0.566424464   0.526187318   0.000000000
B        0.580600096   0.664459924   0.000000000
B        0.582159653   0.790822466   0.000000000
B        0.583040573   0.916207783   0.000000000
B        0.708656326   0.040616831   0.000000000
B        0.709111686   0.165726251   0.000000000
B        0.709421562   0.290578438   0.000000000
B        0.709405666   0.415147666   0.000000000
B        0.704745699   0.538556556   0.000000000
B        0.701527213   0.659150640   0.000000000
B        0.706337096   0.788684591   0.000000000
B        0.707801811   0.915060495   0.000000000
B        0.833679517   0.040490319   0.000000000
B        0.834195653   0.165804361   0.000000000
B        0.834273763   0.290888314   0.000000000
B        0.833998947   0.415906522   0.000000000
B        0.832006903   0.540597895   0.000000000
B        0.830656430   0.664328319   0.000000000
B        0.830269837   0.788076426   0.000000000
B        0.832553188   0.914747467   0.000000000
B        0.958932122   0.041067892   0.000000000
B        0.959509695   0.166320497   0.000000000
B        0.959383183   0.291343674   0.000000000
B        0.958779635   0.416353677   0.000000000
B        0.957658768   0.541372311   0.000000000
B        0.956943722   0.666067086   0.000000000
B        0.956808759   0.790520042   0.000000000
B        0.957554673   0.915405516   0.000000000
End final coordinates



     Writing output data file pwscf.save/
 
     init_run     :     15.69s CPU     16.18s WALL (       1 calls)
     electrons    :   8491.03s CPU   8650.26s WALL (      22 calls)
     update_pot   :     82.67s CPU     83.89s WALL (      21 calls)
     forces       :    119.09s CPU    121.05s WALL (      22 calls)

     Called by init_run:
     wfcinit      :      7.75s CPU      8.02s WALL (       1 calls)
     wfcinit:atom :      0.19s CPU      0.23s WALL (       1 calls)
     wfcinit:wfcr :      6.96s CPU      7.09s WALL (       1 calls)
     potinit      :      2.84s CPU      2.93s WALL (       1 calls)
     hinit0       :      1.29s CPU      1.39s WALL (       1 calls)

     Called by electrons:
     c_bands      :   6970.74s CPU   7104.57s WALL (     500 calls)
     sum_band     :    843.26s CPU    851.99s WALL (     500 calls)
     v_of_rho     :    567.60s CPU    580.41s WALL (     514 calls)
     v_h          :     24.44s CPU     25.61s WALL (     514 calls)
     v_xc         :    543.16s CPU    554.80s WALL (     514 calls)
     mix_rho      :    101.91s CPU    104.54s WALL (     500 calls)

     Called by c_bands:
     init_us_2    :     84.25s CPU     84.32s WALL (    1001 calls)
     regterg      :   6260.15s CPU   6392.00s WALL (     500 calls)

     Called by sum_band:

     Called by *egterg:
     h_psi        :   4286.90s CPU   4321.32s WALL (    4901 calls)
     g_psi        :     25.85s CPU     25.84s WALL (    4400 calls)
     rdiaghg      :    619.76s CPU    619.44s WALL (    4871 calls)
     regterg:over :    437.32s CPU    438.34s WALL (    4400 calls)
     regterg:upda :    429.85s CPU    429.82s WALL (    4400 calls)
     regterg:last :    185.32s CPU    185.38s WALL (     517 calls)

     Called by h_psi:
     h_psi:pot    :   4272.08s CPU   4306.48s WALL (    4901 calls)
     h_psi:calbec :    569.92s CPU    570.03s WALL (    4901 calls)
     vloc_psi     :   3028.14s CPU   3062.91s WALL (    4901 calls)
     add_vuspsi   :    674.00s CPU    673.52s WALL (    4901 calls)

     General routines
     calbec       :    628.03s CPU    628.15s WALL (    4989 calls)
     fft          :    271.62s CPU    285.82s WALL (    7703 calls)
     ffts         :     33.99s CPU     35.62s WALL (    1000 calls)
     fftw         :   3075.90s CPU   3116.16s WALL (  209320 calls)
     davcio       :      0.02s CPU      1.42s WALL (      21 calls)
 
     Parallel routines
     fft_scatt_xy :    729.41s CPU    729.43s WALL (  218023 calls)
     fft_scatt_yz :    603.54s CPU    656.27s WALL (  218023 calls)
 
     PWSCF        :      2h25m CPU      2h28m WALL

 
   This run was terminated on:   8: 3:28  26Jan2023            

=------------------------------------------------------------------------------=
   JOB DONE.
=------------------------------------------------------------------------------=
